created by fftool

3000 atoms
2000 bonds
1000 angles
2 atom types
1 bond types
1 angle types
0.000000 43.625768 xlo xhi
0.000000 43.625768 ylo yhi
0.000000 43.625768 zlo zhi

Atoms

      1       1    1  -0.325600  2.065514e+01  3.575958e+01  4.202102e+01  # O CO2
      2       1    2   0.651200  2.075629e+01  3.690181e+01  4.194837e+01  # C CO2
      3       1    1  -0.325600  2.085744e+01  3.804404e+01  4.187571e+01  # O CO2
      4       2    1  -0.325600  7.973464e+00  1.292305e+01  3.818334e+01  # O CO2
      5       2    2   0.651200  7.044089e+00  1.329603e+01  3.762001e+01  # C CO2
      6       2    1  -0.325600  6.114713e+00  1.366902e+01  3.705667e+01  # O CO2
      7       3    1  -0.325600  2.777119e+01  3.714651e+01  3.670057e+01  # O CO2
      8       3    2   0.651200  2.866923e+01  3.643703e+01  3.680228e+01  # C CO2
      9       3    1  -0.325600  2.956728e+01  3.572754e+01  3.690399e+01  # O CO2
     10       4    1  -0.325600  1.498555e+00  1.231172e+01  4.690659e+00  # O CO2
     11       4    2   0.651200  2.306836e+00  1.159193e+01  4.304944e+00  # C CO2
     12       4    1  -0.325600  3.115117e+00  1.087213e+01  3.919228e+00  # O CO2
     13       5    1  -0.325600  3.393190e+01  2.219619e+01  4.267733e+00  # O CO2
     14       5    2   0.651200  3.286134e+01  2.206672e+01  3.871089e+00  # C CO2
     15       5    1  -0.325600  3.179077e+01  2.193726e+01  3.474444e+00  # O CO2
     16       6    1  -0.325600  3.957971e+01  1.269027e+01  3.607740e+01  # O CO2
     17       6    2   0.651200  3.869561e+01  1.206873e+01  3.646761e+01  # C CO2
     18       6    1  -0.325600  3.781151e+01  1.144719e+01  3.685781e+01  # O CO2
     19       7    1  -0.325600  6.647738e+00  6.827838e+00  9.039849e+00  # O CO2
     20       7    2   0.651200  5.550326e+00  6.487445e+00  9.035398e+00  # C CO2
     21       7    1  -0.325600  4.452914e+00  6.147052e+00  9.030946e+00  # O CO2
     22       8    1  -0.325600  6.218846e+00  1.957663e+01  2.364472e+01  # O CO2
     23       8    2   0.651200  6.601775e+00  1.849549e+01  2.357626e+01  # C CO2
     24       8    1  -0.325600  6.984704e+00  1.741434e+01  2.350780e+01  # O CO2
     25       9    1  -0.325600  3.849948e+01  3.877911e+01  6.072758e+00  # O CO2
     26       9    2   0.651200  3.958352e+01  3.852677e+01  6.358049e+00  # C CO2
     27       9    1  -0.325600  4.066755e+01  3.827443e+01  6.643340e+00  # O CO2
     28      10    1  -0.325600  4.917832e+00  1.836519e+01  3.638570e+01  # O CO2
     29      10    2   0.651200  5.030312e+00  1.803425e+01  3.529116e+01  # C CO2
     30      10    1  -0.325600  5.142792e+00  1.770331e+01  3.419661e+01  # O CO2
     31      11    1  -0.325600  3.805432e+01  7.638481e+00  2.209865e+01  # O CO2
     32      11    2   0.651200  3.878320e+01  8.526518e+00  2.208068e+01  # C CO2
     33      11    1  -0.325600  3.951208e+01  9.414554e+00  2.206272e+01  # O CO2
     34      12    1  -0.325600  1.756581e+00  3.715857e+01  1.263029e+01  # O CO2
     35      12    2   0.651200  2.419400e+00  3.629789e+01  1.300459e+01  # C CO2
     36      12    1  -0.325600  3.082219e+00  3.543721e+01  1.337888e+01  # O CO2
     37      13    1  -0.325600  3.686543e+01  1.359410e+01  9.684228e+00  # O CO2
     38      13    2   0.651200  3.720086e+01  1.340057e+01  1.076600e+01  # C CO2
     39      13    1  -0.325600  3.753629e+01  1.320705e+01  1.184778e+01  # O CO2
     40      14    1  -0.325600  1.363621e+01  2.134340e+01  1.207131e+01  # O CO2
     41      14    2   0.651200  1.368719e+01  2.020158e+01  1.218896e+01  # C CO2
     42      14    1  -0.325600  1.373817e+01  1.905975e+01  1.230661e+01  # O CO2
     43      15    1  -0.325600  4.198560e+00  9.812831e+00  3.148418e+01  # O CO2
     44      15    2   0.651200  5.010974e+00  9.131387e+00  3.192669e+01  # C CO2
     45      15    1  -0.325600  5.823388e+00  8.449944e+00  3.236921e+01  # O CO2
     46      16    1  -0.325600  2.569166e+01  2.147259e+01  2.255078e+01  # O CO2
     47      16    2   0.651200  2.610188e+01  2.086261e+01  2.166769e+01  # C CO2
     48      16    1  -0.325600  2.651210e+01  2.025263e+01  2.078460e+01  # O CO2
     49      17    1  -0.325600  1.263713e+01  2.674643e+01  3.790368e+00  # O CO2
     50      17    2   0.651200  1.221710e+01  2.595773e+01  3.068059e+00  # C CO2
     51      17    1  -0.325600  1.179707e+01  2.516903e+01  2.345749e+00  # O CO2
     52      18    1  -0.325600  4.178575e+01  1.491097e+01  1.497716e+01  # O CO2
     53      18    2   0.651200  4.113280e+01  1.454339e+01  1.584821e+01  # C CO2
     54      18    1  -0.325600  4.047984e+01  1.417581e+01  1.671926e+01  # O CO2
     55      19    1  -0.325600  3.563635e+00  3.330161e+00  3.759054e+01  # O CO2
     56      19    2   0.651200  3.309251e+00  4.415188e+00  3.731089e+01  # C CO2
     57      19    1  -0.325600  3.054868e+00  5.500216e+00  3.703124e+01  # O CO2
     58      20    1  -0.325600  2.561509e+01  1.806112e+01  2.343005e+01  # O CO2
     59      20    2   0.651200  2.465146e+01  1.829309e+01  2.284884e+01  # C CO2
     60      20    1  -0.325600  2.368783e+01  1.852505e+01  2.226763e+01  # O CO2
     61      21    1  -0.325600  8.286568e+00  3.035756e+01  1.983946e+01  # O CO2
     62      21    2   0.651200  7.146287e+00  3.031614e+01  1.970438e+01  # C CO2
     63      21    1  -0.325600  6.006006e+00  3.027473e+01  1.956931e+01  # O CO2
     64      22    1  -0.325600  1.868683e+01  8.300109e+00  3.076527e+00  # O CO2
     65      22    2   0.651200  1.974414e+01  8.690065e+00  2.852404e+00  # C CO2
     66      22    1  -0.325600  2.080145e+01  9.080022e+00  2.628281e+00  # O CO2
     67      23    1  -0.325600  3.787699e+01  6.127848e+00  1.979137e+01  # O CO2
     68      23    2   0.651200  3.750873e+01  5.195748e+00  1.922944e+01  # C CO2
     69      23    1  -0.325600  3.714047e+01  4.263648e+00  1.866750e+01  # O CO2
     70      24    1  -0.325600  1.226579e+01  2.322293e+01  2.711944e+01  # O CO2
     71      24    2   0.651200  1.121034e+01  2.276888e+01  2.712820e+01  # C CO2
     72      24    1  -0.325600  1.015489e+01  2.231484e+01  2.713697e+01  # O CO2
     73      25    1  -0.325600  1.507067e+01  3.295843e+01  2.035325e+01  # O CO2
     74      25    2   0.651200  1.442815e+01  3.365813e+01  2.099961e+01  # C CO2
     75      25    1  -0.325600  1.378563e+01  3.435784e+01  2.164597e+01  # O CO2
     76      26    1  -0.325600  2.724219e+01  1.604168e+00  2.453766e+01  # O CO2
     77      26    2   0.651200  2.713781e+01  2.747211e+00  2.459017e+01  # C CO2
     78      26    1  -0.325600  2.703343e+01  3.890255e+00  2.464267e+01  # O CO2
     79      27    1  -0.325600  5.923087e+00  4.211918e+01  3.304565e+01  # O CO2
     80      27    2   0.651200  5.584505e+00  4.212089e+01  3.414363e+01  # C CO2
     81      27    1  -0.325600  5.245923e+00  4.212261e+01  3.524161e+01  # O CO2
     82      28    1  -0.325600  3.382732e+01  3.710932e+01  3.951335e+01  # O CO2
     83      28    2   0.651200  3.361387e+01  3.598032e+01  3.951041e+01  # C CO2
     84      28    1  -0.325600  3.340043e+01  3.485132e+01  3.950747e+01  # O CO2
     85      29    1  -0.325600  1.834753e+01  3.160793e+01  2.641061e+01  # O CO2
     86      29    2   0.651200  1.897549e+01  3.256916e+01  2.645428e+01  # C CO2
     87      29    1  -0.325600  1.960345e+01  3.353039e+01  2.649795e+01  # O CO2
     88      30    1  -0.325600  1.007712e+01  2.098205e+01  1.960082e+01  # O CO2
     89      30    2   0.651200  9.004357e+00  2.125082e+01  1.928913e+01  # C CO2
     90      30    1  -0.325600  7.931598e+00  2.151959e+01  1.897744e+01  # O CO2
     91      31    1  -0.325600  1.505326e+00  2.360372e+01  3.313922e+01  # O CO2
     92      31    2   0.651200  2.282541e+00  2.440241e+01  3.341894e+01  # C CO2
     93      31    1  -0.325600  3.059756e+00  2.520109e+01  3.369866e+01  # O CO2
     94      32    1  -0.325600  1.977023e+01  1.929660e+01  2.243631e+01  # O CO2
     95      32    2   0.651200  1.909900e+01  1.837699e+01  2.228154e+01  # C CO2
     96      32    1  -0.325600  1.842777e+01  1.745737e+01  2.212677e+01  # O CO2
     97      33    1  -0.325600  4.849062e+00  2.404967e+01  4.489489e+00  # O CO2
     98      33    2   0.651200  5.125863e+00  2.371790e+01  3.424826e+00  # C CO2
     99      33    1  -0.325600  5.402665e+00  2.338612e+01  2.360162e+00  # O CO2
    100      34    1  -0.325600  8.674843e+00  1.739549e+01  1.700706e+01  # O CO2
    101      34    2   0.651200  7.865515e+00  1.804841e+01  1.749581e+01  # C CO2
    102      34    1  -0.325600  7.056186e+00  1.870134e+01  1.798456e+01  # O CO2
    103      35    1  -0.325600  3.211546e+01  1.106418e+01  1.973241e+01  # O CO2
    104      35    2   0.651200  3.156295e+01  1.019802e+01  1.921791e+01  # C CO2
    105      35    1  -0.325600  3.101043e+01  9.331870e+00  1.870341e+01  # O CO2
    106      36    1  -0.325600  2.919847e+01  1.104930e+01  1.696728e+00  # O CO2
    107      36    2   0.651200  2.815587e+01  1.085116e+01  2.137104e+00  # C CO2
    108      36    1  -0.325600  2.711327e+01  1.065302e+01  2.577479e+00  # O CO2
    109      37    1  -0.325600  1.107460e+01  2.373541e+01  3.187578e+01  # O CO2
    110      37    2   0.651200  1.035995e+01  2.463511e+01  3.187805e+01  # C CO2
    111      37    1  -0.325600  9.645302e+00  2.553482e+01  3.188031e+01  # O CO2
    112      38    1  -0.325600  3.587877e+01  3.242361e+01  2.662949e+01  # O CO2
    113      38    2   0.651200  3.540340e+01  3.156728e+01  2.602873e+01  # C CO2
    114      38    1  -0.325600  3.492803e+01  3.071095e+01  2.542796e+01  # O CO2
    115      39    1  -0.325600  3.196873e+01  2.695146e+01  7.067771e+00  # O CO2
    116      39    2   0.651200  3.215888e+01  2.789081e+01  6.434002e+00  # C CO2
    117      39    1  -0.325600  3.234903e+01  2.883016e+01  5.800234e+00  # O CO2
    118      40    1  -0.325600  3.772110e+01  1.482093e+01  3.997170e+01  # O CO2
    119      40    2   0.651200  3.874922e+01  1.528420e+01  3.975132e+01  # C CO2
    120      40    1  -0.325600  3.977733e+01  1.574747e+01  3.953095e+01  # O CO2
    121      41    1  -0.325600  1.501836e+00  3.761925e+01  2.997960e+01  # O CO2
    122      41    2   0.651200  1.795892e+00  3.656082e+01  3.031642e+01  # C CO2
    123      41    1  -0.325600  2.089947e+00  3.550238e+01  3.065324e+01  # O CO2
    124      42    1  -0.325600  2.846250e+01  2.655874e+01  2.586928e+01  # O CO2
    125      42    2   0.651200  2.883925e+01  2.745428e+01  2.525587e+01  # C CO2
    126      42    1  -0.325600  2.921599e+01  2.834982e+01  2.464247e+01  # O CO2
    127      43    1  -0.325600  8.662954e+00  1.827061e+01  2.963634e+01  # O CO2
    128      43    2   0.651200  8.306661e+00  1.905253e+01  2.887354e+01  # C CO2
    129      43    1  -0.325600  7.950368e+00  1.983444e+01  2.811074e+01  # O CO2
    130      44    1  -0.325600  1.769206e+00  3.125504e+00  2.195139e+01  # O CO2
    131      44    2   0.651200  1.637361e+00  4.000807e+00  2.121882e+01  # C CO2
    132      44    1  -0.325600  1.505515e+00  4.876110e+00  2.048625e+01  # O CO2
    133      45    1  -0.325600  6.739105e+00  2.154890e+01  4.047559e+00  # O CO2
    134      45    2   0.651200  7.447486e+00  2.225579e+01  4.612085e+00  # C CO2
    135      45    1  -0.325600  8.155868e+00  2.296270e+01  5.176612e+00  # O CO2
    136      46    1  -0.325600  3.420687e+01  1.690975e+01  9.907348e+00  # O CO2
    137      46    2   0.651200  3.307314e+01  1.673747e+01  9.979334e+00  # C CO2
    138      46    1  -0.325600  3.193941e+01  1.656519e+01  1.005132e+01  # O CO2
    139      47    1  -0.325600  1.085445e+01  2.214661e+01  2.349287e+01  # O CO2
    140      47    2   0.651200  1.179896e+01  2.164179e+01  2.390914e+01  # C CO2
    141      47    1  -0.325600  1.274346e+01  2.113698e+01  2.432540e+01  # O CO2
    142      48    1  -0.325600  3.540304e+01  2.474465e+01  6.240113e+00  # O CO2
    143      48    2   0.651200  3.523744e+01  2.565577e+01  6.920278e+00  # C CO2
    144      48    1  -0.325600  3.507185e+01  2.656690e+01  7.600442e+00  # O CO2
    145      49    1  -0.325600  4.205805e+01  1.361839e+01  2.631384e+01  # O CO2
    146      49    2   0.651200  4.111230e+01  1.424878e+01  2.648226e+01  # C CO2
    147      49    1  -0.325600  4.016655e+01  1.487917e+01  2.665068e+01  # O CO2
    148      50    1  -0.325600  1.067845e+01  3.893995e+01  2.008033e+01  # O CO2
    149      50    2   0.651200  1.163787e+01  3.940255e+01  2.051128e+01  # C CO2
    150      50    1  -0.325600  1.259729e+01  3.986515e+01  2.094223e+01  # O CO2
    151      51    1  -0.325600  7.978332e+00  2.858307e+01  2.200247e+01  # O CO2
    152      51    2   0.651200  7.642505e+00  2.794565e+01  2.110742e+01  # C CO2
    153      51    1  -0.325600  7.306678e+00  2.730823e+01  2.021236e+01  # O CO2
    154      52    1  -0.325600  2.822296e+01  3.768757e+01  4.063481e+00  # O CO2
    155      52    2   0.651200  2.725514e+01  3.759257e+01  4.675446e+00  # C CO2
    156      52    1  -0.325600  2.628732e+01  3.749757e+01  5.287411e+00  # O CO2
    157      53    1  -0.325600  6.306106e+00  6.314812e+00  2.260628e+01  # O CO2
    158      53    2   0.651200  7.062281e+00  5.504737e+00  2.290990e+01  # C CO2
    159      53    1  -0.325600  7.818455e+00  4.694663e+00  2.321351e+01  # O CO2
    160      54    1  -0.325600  5.350672e+00  4.047220e+01  4.148272e+01  # O CO2
    161      54    2   0.651200  6.406821e+00  4.079167e+01  4.180316e+01  # C CO2
    162      54    1  -0.325600  7.462970e+00  4.111115e+01  4.212361e+01  # O CO2
    163      55    1  -0.325600  9.392472e+00  7.186555e+00  3.724745e+01  # O CO2
    164      55    2   0.651200  1.041363e+01  6.659853e+00  3.725196e+01  # C CO2
    165      55    1  -0.325600  1.143479e+01  6.133151e+00  3.725648e+01  # O CO2
    166      56    1  -0.325600  2.210117e+01  1.204883e+01  3.671699e+01  # O CO2
    167      56    2   0.651200  2.132340e+01  1.125898e+01  3.641463e+01  # C CO2
    168      56    1  -0.325600  2.054563e+01  1.046913e+01  3.611227e+01  # O CO2
    169      57    1  -0.325600  2.028169e+01  7.865278e+00  3.271842e+01  # O CO2
    170      57    2   0.651200  2.075749e+01  6.820567e+00  3.276742e+01  # C CO2
    171      57    1  -0.325600  2.123328e+01  5.775856e+00  3.281642e+01  # O CO2
    172      58    1  -0.325600  4.134343e+01  1.763413e+01  8.239195e+00  # O CO2
    173      58    2   0.651200  4.172901e+01  1.752377e+01  9.315927e+00  # C CO2
    174      58    1  -0.325600  4.211459e+01  1.741341e+01  1.039266e+01  # O CO2
    175      59    1  -0.325600  1.496747e+01  2.589913e+00  3.965716e+00  # O CO2
    176      59    2   0.651200  1.435624e+01  3.409522e+00  4.489975e+00  # C CO2
    177      59    1  -0.325600  1.374502e+01  4.229130e+00  5.014234e+00  # O CO2
    178      60    1  -0.325600  1.840658e+01  2.379406e+01  2.046493e+01  # O CO2
    179      60    2   0.651200  1.741904e+01  2.321321e+01  2.055199e+01  # C CO2
    180      60    1  -0.325600  1.643150e+01  2.263237e+01  2.063906e+01  # O CO2
    181      61    1  -0.325600  5.892622e+00  1.165228e+01  1.602719e+00  # O CO2
    182      61    2   0.651200  5.471176e+00  1.065739e+01  1.993590e+00  # C CO2
    183      61    1  -0.325600  5.049731e+00  9.662502e+00  2.384461e+00  # O CO2
    184      62    1  -0.325600  1.623366e+01  3.642896e+01  8.232723e+00  # O CO2
    185      62    2   0.651200  1.530172e+01  3.704767e+01  7.970246e+00  # C CO2
    186      62    1  -0.325600  1.436978e+01  3.766637e+01  7.707769e+00  # O CO2
    187      63    1  -0.325600  2.585927e+01  3.361504e+00  2.823708e+01  # O CO2
    188      63    2   0.651200  2.653824e+01  4.288429e+00  2.823557e+01  # C CO2
    189      63    1  -0.325600  2.721722e+01  5.215354e+00  2.823406e+01  # O CO2
    190      64    1  -0.325600  3.420824e+01  3.884582e+01  2.992562e+01  # O CO2
    191      64    2   0.651200  3.336098e+01  3.809641e+01  3.012745e+01  # C CO2
    192      64    1  -0.325600  3.251373e+01  3.734699e+01  3.032927e+01  # O CO2
    193      65    1  -0.325600  2.606057e+01  3.103416e+01  2.884213e+01  # O CO2
    194      65    2   0.651200  2.667176e+01  3.006737e+01  2.873275e+01  # C CO2
    195      65    1  -0.325600  2.728295e+01  2.910058e+01  2.862336e+01  # O CO2
    196      66    1  -0.325600  3.387702e+01  1.226996e+01  1.798060e+01  # O CO2
    197      66    2   0.651200  3.494619e+01  1.229952e+01  1.840038e+01  # C CO2
    198      66    1  -0.325600  3.601535e+01  1.232908e+01  1.882016e+01  # O CO2
    199      67    1  -0.325600  4.819249e+00  4.206427e+01  3.052749e+01  # O CO2
    200      67    2   0.651200  3.733994e+00  4.184044e+01  3.083134e+01  # C CO2
    201      67    1  -0.325600  2.648738e+00  4.161661e+01  3.113518e+01  # O CO2
    202      68    1  -0.325600  2.456726e+01  8.453782e+00  2.575333e+00  # O CO2
    203      68    2   0.651200  2.387541e+01  7.619366e+00  2.956500e+00  # C CO2
    204      68    1  -0.325600  2.318356e+01  6.784950e+00  3.337667e+00  # O CO2
    205      69    1  -0.325600  5.812725e+00  4.085447e+01  2.214030e+01  # O CO2
    206      69    2   0.651200  6.830949e+00  4.127408e+01  2.181266e+01  # C CO2
    207      69    1  -0.325600  7.849172e+00  4.169369e+01  2.148502e+01  # O CO2
    208      70    1  -0.325600  1.268854e+01  5.125150e+00  3.948766e+01  # O CO2
    209      70    2   0.651200  1.290217e+01  4.017131e+00  3.970412e+01  # C CO2
    210      70    1  -0.325600  1.311581e+01  2.909112e+00  3.992059e+01  # O CO2
    211      71    1  -0.325600  3.025942e+01  1.594681e+01  1.564132e+01  # O CO2
    212      71    2   0.651200  3.124464e+01  1.639779e+01  1.525899e+01  # C CO2
    213      71    1  -0.325600  3.222985e+01  1.684877e+01  1.487666e+01  # O CO2
    214      72    1  -0.325600  1.766611e+01  3.260827e+01  2.374514e+01  # O CO2
    215      72    2   0.651200  1.815431e+01  3.363051e+01  2.393720e+01  # C CO2
    216      72    1  -0.325600  1.864250e+01  3.465275e+01  2.412925e+01  # O CO2
    217      73    1  -0.325600  1.928609e+00  2.837685e+01  2.476737e+01  # O CO2
    218      73    2   0.651200  2.306554e+00  2.880611e+01  2.576391e+01  # C CO2
    219      73    1  -0.325600  2.684498e+00  2.923538e+01  2.676045e+01  # O CO2
    220      74    1  -0.325600  2.087458e+01  5.499607e+00  1.437886e+01  # O CO2
    221      74    2   0.651200  1.985522e+01  5.434585e+00  1.490505e+01  # C CO2
    222      74    1  -0.325600  1.883586e+01  5.369564e+00  1.543124e+01  # O CO2
    223      75    1  -0.325600  7.566905e+00  1.821345e+01  1.445643e+01  # O CO2
    224      75    2   0.651200  6.758848e+00  1.902634e+01  1.453674e+01  # C CO2
    225      75    1  -0.325600  5.950791e+00  1.983923e+01  1.461706e+01  # O CO2
    226      76    1  -0.325600  2.085401e+01  1.588186e+01  1.412276e+01  # O CO2
    227      76    2   0.651200  2.196715e+01  1.567557e+01  1.392641e+01  # C CO2
    228      76    1  -0.325600  2.308029e+01  1.546927e+01  1.373005e+01  # O CO2
    229      77    1  -0.325600  1.740885e+01  3.914588e+01  1.431097e+01  # O CO2
    230      77    2   0.651200  1.721353e+01  3.807737e+01  1.393636e+01  # C CO2
    231      77    1  -0.325600  1.701822e+01  3.700886e+01  1.356176e+01  # O CO2
    232      78    1  -0.325600  1.500099e+00  2.509095e+01  3.816053e+01  # O CO2
    233      78    2   0.651200  2.471182e+00  2.456268e+01  3.784727e+01  # C CO2
    234      78    1  -0.325600  3.442266e+00  2.403441e+01  3.753402e+01  # O CO2
    235      79    1  -0.325600  3.171041e+01  9.379227e+00  5.960290e+00  # O CO2
    236      79    2   0.651200  3.118484e+01  1.039938e+01  5.903164e+00  # C CO2
    237      79    1  -0.325600  3.065928e+01  1.141954e+01  5.846038e+00  # O CO2
    238      80    1  -0.325600  2.359428e+01  3.505778e+01  5.099324e+00  # O CO2
    239      80    2   0.651200  2.412152e+01  3.521603e+01  6.107877e+00  # C CO2
    240      80    1  -0.325600  2.464876e+01  3.537429e+01  7.116431e+00  # O CO2
    241      81    1  -0.325600  1.573545e+01  3.009915e+01  2.230815e+01  # O CO2
    242      81    2   0.651200  1.585171e+01  2.926433e+01  2.152727e+01  # C CO2
    243      81    1  -0.325600  1.596796e+01  2.842952e+01  2.074639e+01  # O CO2
    244      82    1  -0.325600  1.457807e+01  3.975215e+01  2.764964e+01  # O CO2
    245      82    2   0.651200  1.465550e+01  3.887505e+01  2.838782e+01  # C CO2
    246      82    1  -0.325600  1.473294e+01  3.799795e+01  2.912599e+01  # O CO2
    247      83    1  -0.325600  1.994935e+01  2.059944e+01  3.927310e+01  # O CO2
    248      83    2   0.651200  2.011802e+01  1.948447e+01  3.949352e+01  # C CO2
    249      83    1  -0.325600  2.028668e+01  1.836950e+01  3.971394e+01  # O CO2
    250      84    1  -0.325600  3.685969e+01  3.367597e+01  4.012620e+01  # O CO2
    251      84    2   0.651200  3.583879e+01  3.323649e+01  4.041742e+01  # C CO2
    252      84    1  -0.325600  3.481789e+01  3.279701e+01  4.070865e+01  # O CO2
    253      85    1  -0.325600  1.856225e+00  1.599479e+01  2.776474e+01  # O CO2
    254      85    2   0.651200  2.175076e+00  1.495300e+01  2.812972e+01  # C CO2
    255      85    1  -0.325600  2.493928e+00  1.391121e+01  2.849470e+01  # O CO2
    256      86    1  -0.325600  9.939561e+00  4.051124e+01  6.039531e+00  # O CO2
    257      86    2   0.651200  9.898224e+00  3.940566e+01  6.349639e+00  # C CO2
    258      86    1  -0.325600  9.856888e+00  3.830007e+01  6.659747e+00  # O CO2
    259      87    1  -0.325600  1.280954e+01  1.367783e+01  2.995897e+01  # O CO2
    260      87    2   0.651200  1.381053e+01  1.318348e+01  3.023068e+01  # C CO2
    261      87    1  -0.325600  1.481152e+01  1.268912e+01  3.050239e+01  # O CO2
    262      88    1  -0.325600  1.766403e+01  3.309583e+01  3.421427e+01  # O CO2
    263      88    2   0.651200  1.655146e+01  3.334707e+01  3.407548e+01  # C CO2
    264      88    1  -0.325600  1.543889e+01  3.359832e+01  3.393668e+01  # O CO2
    265      89    1  -0.325600  2.409398e+01  4.159281e+00  8.100551e+00  # O CO2
    266      89    2   0.651200  2.337853e+01  5.050316e+00  7.980570e+00  # C CO2
    267      89    1  -0.325600  2.266309e+01  5.941351e+00  7.860590e+00  # O CO2
    268      90    1  -0.325600  4.686816e+00  1.365218e+01  2.015801e+01  # O CO2
    269      90    2   0.651200  5.116413e+00  1.468503e+01  1.989555e+01  # C CO2
    270      90    1  -0.325600  5.546010e+00  1.571787e+01  1.963309e+01  # O CO2
    271      91    1  -0.325600  1.523148e+00  8.063906e+00  3.512683e+01  # O CO2
    272      91    2   0.651200  1.512519e+00  6.928746e+00  3.494935e+01  # C CO2
    273      91    1  -0.325600  1.501891e+00  5.793586e+00  3.477187e+01  # O CO2
    274      92    1  -0.325600  3.109290e+01  1.725706e+01  3.716220e+01  # O CO2
    275      92    2   0.651200  3.095731e+01  1.611874e+01  3.723986e+01  # C CO2
    276      92    1  -0.325600  3.082171e+01  1.498041e+01  3.731753e+01  # O CO2
    277      93    1  -0.325600  3.204064e+01  2.758754e+01  3.074114e+01  # O CO2
    278      93    2   0.651200  3.186955e+01  2.654749e+01  3.028374e+01  # C CO2
    279      93    1  -0.325600  3.169846e+01  2.550744e+01  2.982634e+01  # O CO2
    280      94    1  -0.325600  9.082345e+00  2.216741e+00  3.174862e+01  # O CO2
    281      94    2   0.651200  1.021392e+01  2.415228e+00  3.176745e+01  # C CO2
    282      94    1  -0.325600  1.134548e+01  2.613715e+00  3.178628e+01  # O CO2
    283      95    1  -0.325600  2.903230e+01  1.548825e+01  1.122571e+01  # O CO2
    284      95    2   0.651200  2.990661e+01  1.585721e+01  1.187352e+01  # C CO2
    285      95    1  -0.325600  3.078092e+01  1.622617e+01  1.252133e+01  # O CO2
    286      96    1  -0.325600  6.583352e+00  4.011171e+01  1.401498e+01  # O CO2
    287      96    2   0.651200  6.127274e+00  3.913058e+01  1.362823e+01  # C CO2
    288      96    1  -0.325600  5.671195e+00  3.814945e+01  1.324148e+01  # O CO2
    289      97    1  -0.325600  9.544287e+00  2.552318e+01  1.551426e+01  # O CO2
    290      97    2   0.651200  1.052359e+01  2.533420e+01  1.608474e+01  # C CO2
    291      97    1  -0.325600  1.150290e+01  2.514521e+01  1.665522e+01  # O CO2
    292      98    1  -0.325600  1.619911e+01  8.306519e+00  1.882581e+01  # O CO2
    293      98    2   0.651200  1.513859e+01  7.901296e+00  1.900268e+01  # C CO2
    294      98    1  -0.325600  1.407806e+01  7.496073e+00  1.917955e+01  # O CO2
    295      99    1  -0.325600  1.704115e+01  3.375520e+00  2.203087e+01  # O CO2
    296      99    2   0.651200  1.636229e+01  4.091598e+00  2.144216e+01  # C CO2
    297      99    1  -0.325600  1.568343e+01  4.807676e+00  2.085344e+01  # O CO2
    298     100    1  -0.325600  2.252269e+01  2.941071e+01  9.224316e+00  # O CO2
    299     100    2   0.651200  2.138206e+01  2.933732e+01  9.106965e+00  # C CO2
    300     100    1  -0.325600  2.024142e+01  2.926393e+01  8.989615e+00  # O CO2
    301     101    1  -0.325600  3.529419e+01  3.514120e+01  2.616328e+01  # O CO2
    302     101    2   0.651200  3.448227e+01  3.527240e+01  2.696564e+01  # C CO2
    303     101    1  -0.325600  3.367035e+01  3.540360e+01  2.776799e+01  # O CO2
    304     102    1  -0.325600  6.542241e+00  5.554260e+00  1.934851e+00  # O CO2
    305     102    2   0.651200  5.415569e+00  5.633862e+00  1.723959e+00  # C CO2
    306     102    1  -0.325600  4.288897e+00  5.713463e+00  1.513067e+00  # O CO2
    307     103    1  -0.325600  3.030248e+01  2.144020e+01  3.605667e+01  # O CO2
    308     103    2   0.651200  3.091741e+01  2.107973e+01  3.515550e+01  # C CO2
    309     103    1  -0.325600  3.153234e+01  2.071926e+01  3.425432e+01  # O CO2
    310     104    1  -0.325600  2.456228e+01  4.366868e+00  1.090205e+01  # O CO2
    311     104    2   0.651200  2.351414e+01  4.282454e+00  1.136517e+01  # C CO2
    312     104    1  -0.325600  2.246600e+01  4.198040e+00  1.182829e+01  # O CO2
    313     105    1  -0.325600  1.198735e+01  1.110593e+01  1.562722e+00  # O CO2
    314     105    2   0.651200  1.285454e+01  1.039483e+01  1.812738e+00  # C CO2
    315     105    1  -0.325600  1.372173e+01  9.683718e+00  2.062753e+00  # O CO2
    316     106    1  -0.325600  1.069125e+01  1.155614e+01  1.732471e+01  # O CO2
    317     106    2   0.651200  1.133390e+01  1.133589e+01  1.825136e+01  # C CO2
    318     106    1  -0.325600  1.197655e+01  1.111564e+01  1.917802e+01  # O CO2
    319     107    1  -0.325600  1.775539e+01  2.687225e+00  2.463711e+01  # O CO2
    320     107    2   0.651200  1.873741e+01  3.244902e+00  2.484887e+01  # C CO2
    321     107    1  -0.325600  1.971942e+01  3.802578e+00  2.506063e+01  # O CO2
    322     108    1  -0.325600  7.597471e+00  9.978518e+00  2.450621e+01  # O CO2
    323     108    2   0.651200  8.746303e+00  9.993040e+00  2.451943e+01  # C CO2
    324     108    1  -0.325600  9.895136e+00  1.000756e+01  2.453265e+01  # O CO2
    325     109    1  -0.325600  8.881979e+00  3.919897e+01  3.809071e+01  # O CO2
    326     109    2   0.651200  9.516628e+00  3.861590e+01  3.885062e+01  # C CO2
    327     109    1  -0.325600  1.015128e+01  3.803283e+01  3.961052e+01  # O CO2
    328     110    1  -0.325600  7.643448e+00  6.032958e+00  1.582815e+01  # O CO2
    329     110    2   0.651200  6.598582e+00  5.865777e+00  1.538037e+01  # C CO2
    330     110    1  -0.325600  5.553715e+00  5.698595e+00  1.493259e+01  # O CO2
    331     111    1  -0.325600  3.788682e+00  3.756814e+01  2.592707e+01  # O CO2
    332     111    2   0.651200  4.834613e+00  3.711555e+01  2.607334e+01  # C CO2
    333     111    1  -0.325600  5.880544e+00  3.666296e+01  2.621961e+01  # O CO2
    334     112    1  -0.325600  1.756866e+01  1.962387e+01  3.664926e+01  # O CO2
    335     112    2   0.651200  1.844785e+01  1.928179e+01  3.599336e+01  # C CO2
    336     112    1  -0.325600  1.932704e+01  1.893970e+01  3.533747e+01  # O CO2
    337     113    1  -0.325600  2.397921e+01  4.389070e+00  3.725046e+01  # O CO2
    338     113    2   0.651200  2.314659e+01  3.633089e+00  3.701501e+01  # C CO2
    339     113    1  -0.325600  2.231396e+01  2.877109e+00  3.677957e+01  # O CO2
    340     114    1  -0.325600  1.243846e+01  3.744460e+01  1.019363e+01  # O CO2
    341     114    2   0.651200  1.354559e+01  3.771880e+01  1.033244e+01  # C CO2
    342     114    1  -0.325600  1.465273e+01  3.799299e+01  1.047125e+01  # O CO2
    343     115    1  -0.325600  2.759092e+01  2.771704e+01  2.023890e+01  # O CO2
    344     115    2   0.651200  2.675761e+01  2.834022e+01  1.975161e+01  # C CO2
    345     115    1  -0.325600  2.592430e+01  2.896339e+01  1.926432e+01  # O CO2
    346     116    1  -0.325600  3.120902e+01  1.327628e+01  1.787676e+01  # O CO2
    347     116    2   0.651200  3.161756e+01  1.367222e+01  1.887502e+01  # C CO2
    348     116    1  -0.325600  3.202611e+01  1.406817e+01  1.987328e+01  # O CO2
    349     117    1  -0.325600  2.935536e+01  3.422232e+01  6.677608e+00  # O CO2
    350     117    2   0.651200  2.990923e+01  3.504733e+01  7.254486e+00  # C CO2
    351     117    1  -0.325600  3.046309e+01  3.587234e+01  7.831364e+00  # O CO2
    352     118    1  -0.325600  3.233375e+01  7.966258e+00  1.142980e+01  # O CO2
    353     118    2   0.651200  3.330492e+01  8.296040e+00  1.091186e+01  # C CO2
    354     118    1  -0.325600  3.427610e+01  8.625822e+00  1.039392e+01  # O CO2
    355     119    1  -0.325600  2.677063e+01  7.791748e+00  3.181395e+01  # O CO2
    356     119    2   0.651200  2.764439e+01  7.119491e+00  3.149020e+01  # C CO2
    357     119    1  -0.325600  2.851815e+01  6.447234e+00  3.116646e+01  # O CO2
    358     120    1  -0.325600  2.228015e+01  2.340374e+01  3.484386e+01  # O CO2
    359     120    2   0.651200  2.123652e+01  2.375841e+01  3.451944e+01  # C CO2