LAMMPS (2 Aug 2023)
WARNING: Using I/O redirection is unreliable with parallel runs. Better to use the -in switch to read input files. (../lammps.cpp:537)

#############################################################################
# Input file for simulating CO2 molecules using the EPM-2 force field
#############################################################################

#----------------------------------------
# Global model settings
#----------------------------------------

units           real
atom_style      full
boundary        p p p
pair_style      lj/cut/coul/long  14
pair_modify     mix geometric tail yes
kspace_style    pppm 1e-6
bond_style      harmonic
angle_style     harmonic

#-------------------------------------------------------
# Constants and variables
#-------------------------------------------------------

variable       Temp		    index		253                 # K
variable       Pres        index        98.7167                 # in BAR
variable       RandomSeed   index       3003                 # The random seed for velocity
#################### NPT ##############################################################################
variable       Ninpt    equal       100000       # Initialize the NPT ensemble (very small timesteps)
variable       Npnpt    equal       5000000      # Production the NPT ensemble

# #################### NVT ##############################################################################
# variable       Ninvt    equal       100000       # Initialize the NVT ensemble (very small timesteps)
# variable       Npnvt    equal       5000000       # Production the NVT ensemble

# #################### NVE ##############################################################################
# variable       Npnve    equal       10000000       # Production the NVE ensemble

#################### SAMPLING ###########################################################################
variable        Nf          equal       500             # rate of outputting to the log file
variable        NBR         equal       ${Npnpt}/100    # Block averaging for density (NPT)
variable        NBR         equal       5000000/100    
variable        nb          equal       10              # Number of blocks (fix ordern)
variable        nbe         equal       20              # Number of block elements (fix ordern)
# variable        Nvisc       equal       5               # Nevery for viscosity
# variable        Ndiff       equal       500            # Nevery for diffusivity (fix ordern: sample data at (Ndiff))
# variable        Nwrit       equal       10000            # Nwrite for transport properties (fix ordern: write every (Nwrit))

#---------------------------------------------
# Box, start molecules on simple cubic lattice
#---------------------------------------------
read_data ./data.lmp     # read the positions
Reading data file ...
  orthogonal box = (0 0 0) to (43.625768 43.625768 43.625768)
  2 by 2 by 3 MPI processor grid
  reading atoms ...
  3000 atoms
  scanning bonds ...
  1 = max bonds/atom
  scanning angles ...
  1 = max angles/atom
  reading bonds ...
  2000 bonds
  reading angles ...
  1000 angles
Finding 1-2 1-3 1-4 neighbors ...
  special bond factors lj:    0        0        0       
  special bond factors coul:  0        0        0       
     2 = max # of 1-2 neighbors
     1 = max # of 1-3 neighbors
     1 = max # of 1-4 neighbors
     2 = max # of special neighbors
  special bonds CPU = 0.003 seconds
  read_data CPU = 0.089 seconds

#-------------------------------
# FORCEFIELD - flex EPM2 model
#-------------------------------

pair_coeff      1   1  0.05589  2.757       # C-C
pair_coeff      2   2  0.1599   3.033       # O-O
#pair_coeff      1   2  0.0946   2.892       # EPM2 contains a geometric mean - only this interaction overrides arith mix

bond_coeff      1       0           1.149
angle_coeff     1       147.705     180

#-------
# Masses
#-------

mass 1 12.0107
mass 2 15.9994

#------------
# MD settings
#------------

group           carb type 1
2000 atoms in group carb
group           oxy  type 2
1000 atoms in group oxy

neighbor        3.0 bin
neigh_modify    every 1 delay 0 check yes
run_style       verlet

#----------------
# NPT simulations
#----------------

fix         constrain   all   shake   1e-6    1000 0 b 1
Finding SHAKE clusters ...
       0 = # of size 2 clusters
    1000 = # of size 3 clusters
       0 = # of size 4 clusters
       0 = # of frozen angles
  find clusters CPU = 0.002 seconds
fix         runnpt      all   npt     temp    ${Temp} ${Temp} 100 iso ${Pres} ${Pres} 1000
fix         runnpt      all   npt     temp    253 ${Temp} 100 iso ${Pres} ${Pres} 1000
fix         runnpt      all   npt     temp    253 253 100 iso ${Pres} ${Pres} 1000
fix         runnpt      all   npt     temp    253 253 100 iso 98.7167 ${Pres} 1000
fix         runnpt      all   npt     temp    253 253 100 iso 98.7167 98.7167 1000

#----------
# Output
#----------

compute 1 all angle/local theta         # compute angles and dump into file

compute 2 all reduce ave    c_1
compute 3 all reduce avesq  c_1

compute 4 all   bond/local  dist
compute 5 all   reduce ave  c_4

thermo_style custom step pe ke etotal press temp c_2 c_3 c_5
thermo_modify  flush yes
thermo ${Nf}
thermo 500

#--------------------
# Run (Initialization)
#--------------------

# initialize to imposed temperature
velocity    all create ${Temp} ${RandomSeed}
velocity    all create 253 ${RandomSeed}
velocity    all create 253 3003
run         0
PPPM initialization ...
  using 12-bit tables for long-range coulomb (../kspace.cpp:342)
  G vector (1/distance) = 0.23221062
  grid = 36 36 36
  stencil order = 5
  estimated absolute RMS force accuracy = 0.00025938495
  estimated relative force accuracy = 7.8113007e-07
  using double precision KISS FFT
  3d grid and FFT values/proc = 11875 3888
Generated 1 of 1 mixed pair_coeff terms from geometric mixing rule
Neighbor list info ...
  update: every = 1 steps, delay = 0 steps, check = yes
  max neighbors/atom: 2000, page size: 100000
  master list distance cutoff = 17
  ghost atom cutoff = 17
  binsize = 8.5, bins = 6 6 6
  1 neighbor lists, perpetual/occasional/extra = 1 0 0
  (1) pair lj/cut/coul/long, perpetual
      attributes: half, newton on
      pair build: half/bin/newton
      stencil: half/bin/3d
      bin: standard
Per MPI rank memory allocation (min/avg/max) = 9.055 | 9.254 | 9.453 Mbytes
   Step         PotEng         KinEng         TotEng         Press           Temp           c_2            c_3            c_5      
         0  -1247.1128      1758.9174      511.80459      4527.3483      253            179.99963      32399.865      1.149        
Loop time of 3.82519e-05 on 12 procs for 0 steps with 3000 atoms

42.7% CPU use with 12 MPI tasks x no OpenMP threads

MPI task timing breakdown:
Section |  min time  |  avg time  |  max time  |%varavg| %total
---------------------------------------------------------------
Pair    | 0          | 0          | 0          |   0.0 |  0.00
Bond    | 0          | 0          | 0          |   0.0 |  0.00
Kspace  | 0          | 0          | 0          |   0.0 |  0.00
Neigh   | 0          | 0          | 0          |   0.0 |  0.00
Comm    | 0          | 0          | 0          |   0.0 |  0.00
Output  | 0          | 0          | 0          |   0.0 |  0.00
Modify  | 0          | 0          | 0          |   0.0 |  0.00
Other   |            | 3.825e-05  |            |       |100.00

Nlocal:            250 ave         277 max         159 min
Histogram: 1 0 0 0 0 0 2 2 3 4
Nghost:        5300.42 ave        5574 max        4958 min
Histogram: 2 0 1 1 0 2 2 1 2 1
Neighs:        94721.7 ave      113671 max       50398 min
Histogram: 1 0 0 0 0 2 2 1 4 2

Total # of neighbors = 1136660
Ave neighs/atom = 378.88667
Ave special neighs/atom = 2
Neighbor list builds = 0
Dangerous builds = 0
velocity    all scale ${Temp}
velocity    all scale 253
velocity    all zero linear         # set box momentum to zero

timestep    0.0001
run         ${Ninpt}
run         100000
PPPM initialization ...
  using 12-bit tables for long-range coulomb (../kspace.cpp:342)
  G vector (1/distance) = 0.23221062
  grid = 36 36 36
  stencil order = 5
  estimated absolute RMS force accuracy = 0.00025938495
  estimated relative force accuracy = 7.8113007e-07
  using double precision KISS FFT
  3d grid and FFT values/proc = 11875 3888
Generated 1 of 1 mixed pair_coeff terms from geometric mixing rule
Per MPI rank memory allocation (min/avg/max) = 9.055 | 9.254 | 9.453 Mbytes
   Step         PotEng         KinEng         TotEng         Press           Temp           c_2            c_3            c_5      
         0  -1247.1131      1758.9174      511.80432      34510205       253            179.99963      32399.865      1.149        
       500  -1247.0538      1367.3328      120.27899      847.9158       196.67507      179.97407      32390.667      1.149        
      1000  -1246.9214      1367.217       120.29562      849.91738      196.65841      179.94814      32381.332      1.149        
      1500  -1246.7152      1367.0166      120.30139      848.8874       196.62959      179.9222       32372.001      1.149        
      2000  -1246.4354      1366.7393      120.30391      849.77903      196.5897       179.89628      32362.673      1.149        
      2500  -1246.0818      1366.3876      120.3058       851.32017      196.53912      179.87036      32353.35       1.149        
      3000  -1245.655       1365.9624      120.30741      851.25249      196.47795      179.84445      32344.033      1.149        
      3500  -1245.1552      1365.4639      120.30872      852.03131      196.40625      179.81856      32334.722      1.149        
      4000  -1244.5828      1364.8925      120.30963      854.26044      196.32405      179.79268      32325.42       1.149        
      4500  -1243.9375      1364.2483      120.31083      853.31802      196.2314       179.76683      32316.125      1.149        
      5000  -1243.2196      1363.5318      120.31222      855.68202      196.12834      179.74099      32306.841      1.149        
      5500  -1242.4293      1362.7431      120.3138       857.64465      196.0149       179.71518      32297.566      1.149        
      6000  -1241.5672      1361.8827      120.31549      859.2035       195.89114      179.6894       32288.303      1.149        
      6500  -1240.6336      1360.9508      120.31721      860.59876      195.75709      179.66364      32279.052      1.149        
      7000  -1239.6287      1359.9478      120.31911      861.07986      195.61283      179.63792      32269.815      1.149        
      7500  -1238.553       1358.8741      120.32112      863.48257      195.45839      179.61223      32260.591      1.149        
      8000  -1237.4067      1357.7301      120.32347      864.71894      195.29384      179.58658      32251.381      1.149        
      8500  -1236.1903      1356.5163      120.32596      866.82747      195.11924      179.56097      32242.188      1.149        
      9000  -1234.9051      1355.2331      120.32804      868.76555      194.93467      179.5354       32233.011      1.149        
      9500  -1233.5507      1353.881       120.33025      871.1458       194.74018      179.50987      32223.852      1.149        
     10000  -1232.1279      1352.4606      120.33264      875.00999      194.53587      179.48439      32214.71       1.149        
     10500  -1230.6369      1350.9723      120.33544      877.16595      194.3218       179.45896      32205.588      1.149        
     11000  -1229.0782      1349.4168      120.33862      879.54307      194.09806      179.43358      32196.486      1.149        
     11500  -1227.453       1347.7947      120.34174      881.53436      193.86474      179.40825      32187.405      1.149        
     12000  -1225.7617      1346.1066      120.34494      884.07679      193.62192      179.38298      32178.346      1.149        
     12500  -1224.005       1344.3532      120.34815      888.44304      193.36971      179.35777      32169.31       1.149        
     13000  -1222.1836      1342.5351      120.35145      889.95878      193.1082       179.33262      32160.297      1.149        
     13500  -1220.298       1340.653       120.355        893.64384      192.83749      179.30753      32151.308      1.149        
     14000  -1218.3487      1338.7077      120.35904      895.99898      192.55768      179.28251      32142.344      1.149        
     14500  -1216.337       1336.7         120.36303      900.20221      192.26889      179.25756      32133.407      1.149        
     15000  -1214.2633      1334.6306      120.36726      903.34288      191.97123      179.23268      32124.496      1.149        
     15500  -1212.1286      1332.5003      120.37169      907.42306      191.66482      179.20787      32115.614      1.149        
     16000  -1209.9336      1330.31        120.37641      911.70816      191.34977      179.18314      32106.759      1.149        
     16500  -1207.6792      1328.0605      120.38127      915.40016      191.0262       179.15848      32097.935      1.149        
     17000  -1205.3667      1325.7527      120.38592      917.63484      190.69424      179.13391      32089.14       1.149        
     17500  -1202.9967      1323.3874      120.39068      923.49761      190.35403      179.10942      32080.377      1.149        
     18000  -1200.5699      1320.9657      120.39577      927.12095      190.00569      179.08501      32071.645      1.149        
     18500  -1198.0878      1318.4884      120.40059      930.82416      189.64937      179.06069      32062.947      1.149        
     19000  -1195.5509      1315.9566      120.40562      935.27169      189.28519      179.03647      32054.282      1.149        
     19500  -1192.9601      1313.3711      120.41106      938.26522      188.9133       179.01233      32045.651      1.149        
     20000  -1190.3162      1310.7331      120.41695      943.95682      188.53385      178.98829      32037.056      1.149        
     20500  -1187.6208      1308.0435      120.42269      948.81907      188.14699      178.96434      32028.496      1.149        
     21000  -1184.8748      1305.3035      120.42867      953.50056      187.75286      178.94049      32019.973      1.149        
     21500  -1182.0793      1302.5139      120.43466      957.79638      187.35162      178.91675      32011.488      1.149        
     22000  -1179.2353      1299.6761      120.44084      961.78997      186.94343      178.89311      32003.042      1.149        
     22500  -1176.344       1296.791       120.44703      967.91642      186.52845      178.86957      31994.634      1.149        
     23000  -1173.4064      1293.8598      120.45345      969.87964      186.10683      178.84614      31986.267      1.149        
     23500  -1170.4237      1290.8837      120.45993      975.36988      185.67874      178.82283      31977.94       1.149        
     24000  -1167.3972      1287.8637      120.46654      981.42297      185.24436      178.79962      31969.655      1.149        
     24500  -1164.3278      1284.8012      120.47341      986.73047      184.80384      178.77653      31961.412      1.149        
     25000  -1161.2169      1281.6972      120.48027      990.97765      184.35737      178.75356      31953.213      1.149        
     25500  -1158.0656      1278.553       120.4874       996.54425      183.90512      178.73071      31945.057      1.149        
     26000  -1154.8751      1275.3698      120.49474      1002.4821      183.44725      178.70797      31936.945      1.149        
     26500  -1151.6467      1272.1489      120.50225      1007.3894      182.98396      178.68537      31928.88       1.149        
     27000  -1148.3817      1268.8915      120.50981      1012.5297      182.51543      178.66288      31920.86       1.149        
     27500  -1145.0813      1265.599       120.51761      1018.1604      182.04183      178.64053      31912.887      1.149        
     28000  -1141.7468      1262.2725      120.52567      1022.8955      181.56335      178.6183       31904.962      1.149        
     28500  -1138.3795      1258.9134      120.53387      1029.2406      181.08018      178.59621      31897.085      1.149        
     29000  -1134.9809      1255.5229      120.54205      1034.762       180.59251      178.57425      31889.257      1.149        
     29500  -1131.5518      1252.1026      120.55074      1039.99        180.10053      178.55243      31881.479      1.149        
     30000  -1128.0945      1248.6536      120.55905      1044.5205      179.60443      178.53075      31873.752      1.149        
     30500  -1124.6094      1245.1773      120.56783      1052.0156      179.1044       178.50921      31866.076      1.149        
     31000  -1121.0983      1241.675       120.57674      1056.8957      178.60065      178.48781      31858.452      1.149        
     31500  -1117.5626      1238.1483      120.58564      1063.0234      178.09336      178.46655      31850.88       1.149        
     32000  -1114.0037      1234.5983      120.59455      1066.7135      177.58274      178.44544      31843.362      1.149        
     32500  -1110.4227      1231.0265      120.60386      1074.3077      177.06898      178.42448      31835.898      1.149        
     33000  -1106.8211      1227.4344      120.61332      1080.3697      176.5523       178.40368      31828.489      1.149        
     33500  -1103.2008      1223.8233      120.62249      1085.5046      176.03288      178.38302      31821.135      1.149        
     34000  -1099.5624      1220.1946      120.63219      1093.6662      175.51093      178.36252      31813.837      1.149        
     34500  -1095.9079      1216.5498      120.64186      1097.2966      174.98667      178.34217      31806.596      1.149        
     35000  -1092.2382      1212.8902      120.65202      1103.5425      174.46028      178.32199      31799.413      1.149        
     35500  -1088.5553      1209.2173      120.66201      1110.8642      173.93198      178.30196      31792.287      1.149        
     36000  -1084.8603      1205.5326      120.67232      1116.1656      173.40198      178.2821       31785.221      1.149        
     36500  -1081.1547      1201.8375      120.68278      1120.6081      172.87047      178.2624       31778.213      1.149        
     37000  -1077.44        1198.1334      120.69337      1127.326       172.33768      178.24286      31771.266      1.149        
     37500  -1073.7174      1194.4218      120.70432      1134.0783      171.80381      178.2235       31764.38       1.149        
     38000  -1069.989       1190.7041      120.71505      1139.8532      171.26906      178.20431      31757.555      1.149        
     38500  -1066.2559      1186.9818      120.7259       1146.2721      170.73365      178.18528      31750.792      1.149        
     39000  -1062.5193      1183.2563      120.73708      1151.8046      170.19779      178.16643      31744.091      1.149        
     39500  -1058.7809      1179.5292      120.74829      1158.2987      169.66169      178.14776      31737.454      1.149        
     40000  -1055.0421      1175.8018      120.75968      1165.7146      169.12555      178.12926      31730.88       1.149        
     40500  -1051.3044      1172.0757      120.77125      1171.4795      168.58958      178.11094      31724.371      1.149        
     41000  -1047.5691      1168.3522      120.78312      1176.0633      168.054        178.0928       31717.927      1.149        
     41500  -1043.8378      1164.6329      120.79507      1182.667       167.51902      178.07485      31711.548      1.149        
     42000  -1040.1122      1160.9191      120.80698      1188.6011      166.98484      178.05708      31705.236      1.149        
     42500  -1036.3934      1157.2125      120.8191       1194.6033      166.45168      178.03949      31698.99       1.149        
     43000  -1032.6831      1153.5143      120.83123      1202.1584      165.91974      178.02209      31692.812      1.149        
     43500  -1028.9823      1149.8261      120.84374      1207.773       165.38923      178.00488      31686.701      1.149        
     44000  -1025.2928      1146.1492      120.85644      1213.7024      164.86036      177.98787      31680.659      1.149        
     44500  -1021.6164      1142.4852      120.86883      1218.4118      164.33334      177.97104      31674.686      1.149        
     45000  -1017.9538      1138.8355      120.88166      1225.9091      163.80836      177.95441      31668.782      1.149        
     45500  -1014.3069      1135.2015      120.8946       1230.6303      163.28565      177.93797      31662.948      1.149        
     46000  -1010.6767      1131.5846      120.90789      1236.0967      162.7654       177.92173      31657.185      1.149        
     46500  -1007.0652      1127.9862      120.92101      1242.5858      162.24782      177.90569      31651.493      1.149        
     47000  -1003.4736      1124.4078      120.93417      1249.0975      161.7331       177.88984      31645.873      1.149        
     47500  -999.90326      1120.8507      120.94745      1254.9229      161.22146      177.8742       31640.324      1.149        
     48000  -996.35523      1117.3164      120.96116      1260.4938      160.71309      177.85877      31634.849      1.149        
     48500  -992.83136      1113.8062      120.97483      1264.8987      160.20819      177.84353      31629.446      1.149        
     49000  -989.33283      1110.3215      120.98867      1271.1764      159.70696      177.82851      31624.117      1.149        
     49500  -985.86093      1106.8637      121.00276      1276.9235      159.20959      177.81369      31618.862      1.149        
     50000  -982.41717      1103.4341      121.01693      1282.4725      158.71628      177.79908      31613.681      1.149        
     50500  -979.00254      1100.0341      121.03153      1287.6566      158.22723      177.78467      31608.575      1.149        
     51000  -975.61891      1096.665       121.04605      1294.0601      157.74262      177.77048      31603.545      1.149        
     51500  -972.26724      1093.3281      121.06082      1299.9392      157.26264      177.75651      31598.591      1.149        
     52000  -968.94904      1090.0247      121.07566      1304.4668      156.78749      177.74274      31593.712      1.149        
     52500  -965.66582      1086.7562      121.09034      1308.3129      156.31735      177.72919      31588.911      1.149        
     53000  -962.41825      1083.5237      121.10548      1314.6769      155.8524       177.71586      31584.187      1.149        
     53500  -959.20804      1080.3287      121.12065      1320.2253      155.39283      177.70275      31579.54       1.149        
     54000  -956.03586      1077.1723      121.1364       1324.8295      154.93882      177.68985      31574.971      1.149        
     54500  -952.90383      1074.0557      121.15189      1330.6994      154.49054      177.67718      31570.481      1.149        
     55000  -949.81253      1070.9803      121.16772      1334.9819      154.04817      177.66472      31566.069      1.149        
     55500  -946.76359      1067.9471      121.18351      1339.4345      153.61188      177.65249      31561.737      1.149        
     56000  -943.7579       1064.9574      121.19952      1345.3119      153.18185      177.64048      31557.484      1.149        
     56500  -940.79656      1062.0124      121.21584      1348.9875      152.75825      177.6287       31553.311      1.149        
     57000  -937.88095      1059.1132      121.23226      1353.6473      152.34123      177.61714      31549.218      1.149        
     57500  -935.01215      1056.261       121.24883      1359.3152      151.93097      177.60581      31545.206      1.149        
     58000  -932.19186      1053.4568      121.26497      1363.2927      151.52763      177.5947       31541.275      1.149        
     58500  -929.42026      1050.7018      121.28159      1367.4893      151.13135      177.58383      31537.424      1.149        
     59000  -926.69868      1047.9971      121.29845      1372.4943      150.74231      177.57318      31533.656      1.149        
     59500  -924.02846      1045.3437      121.31528      1376.1259      150.36065      177.56277      31529.97       1.149        
     60000  -921.41026      1042.7427      121.33246      1380.5405      149.98652      177.55259      31526.365      1.149        
     60500  -918.84517      1040.1951      121.34991      1385.0686      149.62008      177.54264      31522.844      1.149        
     61000  -916.33468      1037.7018      121.36716      1389.5725      149.26145      177.53292      31519.405      1.149        
     61500  -913.87923      1035.264       121.38474      1393.8536      148.91079      177.52344      31516.049      1.149        
     62000  -911.47995      1032.8824      121.40249      1396.3531      148.56824      177.51419      31512.776      1.149        
     62500  -909.13785      1030.5582      121.42034      1400.7425      148.23392      177.50518      31509.588      1.149        
     63000  -906.85391      1028.2921      121.4382       1405.1145      147.90797      177.4964       31506.483      1.149        
     63500  -904.62874      1026.0851      121.45637      1408.0594      147.59052      177.48786      31503.462      1.149        
     64000  -902.46349      1023.9381      121.47459      1410.8208      147.28169      177.47956      31500.526      1.149        
     64500  -900.35877      1021.8518      121.49306      1413.8295      146.98161      177.4715       31497.674      1.149        
     65000  -898.31569      1019.8272      121.51151      1417.8576      146.69039      177.46368      31494.907      1.149        
     65500  -896.33486      1017.865       121.53014      1420.6318      146.40815      177.4561       31492.226      1.149        
     66000  -894.41685      1015.966       121.54913      1424.1283      146.135        177.44876      31489.629      1.149        
     66500  -892.56255      1014.1309      121.56837      1426.5647      145.87105      177.44166      31487.119      1.149        
     67000  -890.77294      1012.3605      121.58758      1429.8457      145.6164       177.4348       31484.694      1.149        
     67500  -889.04832      1010.6555      121.60718      1432.5604      145.37115      177.42818      31482.354      1.149        
     68000  -887.3896       1009.0165      121.62692      1435.6465      145.1354       177.42181      31480.101      1.149        
     68500  -885.79775      1007.4442      121.6465       1437.3488      144.90925      177.41569      31477.934      1.149        
     69000  -884.27283      1005.9393      121.66645      1438.7313      144.69278      177.4098       31475.854      1.149        
     69500  -882.81597      1004.5022      121.68628      1441.6227      144.48607      177.40416      31473.86       1.149        
     70000  -881.427        1003.1337      121.7067       1444.8401      144.28922      177.39877      31471.952      1.149        
     70500  -880.10674      1001.8342      121.72745      1446.0328      144.10231      177.39362      31470.132      1.149        
     71000  -878.85615      1000.6042      121.74809      1449.171       143.92539      177.38872      31468.399      1.149        
     71500  -877.67509      999.44432      121.76923      1451.8039      143.75855      177.38406      31466.752      1.149        
     72000  -876.56511      998.35492      121.78981      1452.0762      143.60185      177.37965      31465.193      1.149        
     72500  -875.52553      997.33646      121.81093      1453.1907      143.45536      177.37548      31463.721      1.149        
     73000  -874.55669      996.38936      121.83267      1456.6136      143.31913      177.37157      31462.337      1.149        
     73500  -873.66013      995.514        121.85387      1456.8152      143.19322      177.3679       31461.04       1.149        
     74000  -872.83504      994.71073      121.87569      1457.3587      143.07768      177.36448      31459.83       1.149        
     74500  -872.08227      993.97987      121.8976       1457.7598      142.97255      177.3613       31458.709      1.149        
     75000  -871.40225      993.32173      121.91948      1459.6893      142.87789      177.35838      31457.675      1.149        
     75500  -870.79489      992.73657      121.94169      1460.8142      142.79372      177.3557       31456.728      1.149        
     76000  -870.2605       992.22465      121.96415      1460.8176      142.72008      177.35327      31455.87       1.149        
     76500  -869.79919      991.78616      121.98696      1460.6025      142.65701      177.35109      31455.099      1.149        
     77000  -869.41101      991.42129      122.01027      1462.8128      142.60453      177.34916      31454.416      1.149        
     77500  -869.09689      991.1302       122.03331      1462.5629      142.56266      177.34747      31453.821      1.149        
     78000  -868.85661      990.91302      122.05641      1464.2643      142.53142      177.34604      31453.313      1.149        
     78500  -868.69012      990.76985      122.07973      1463.5059      142.51083      177.34485      31452.894      1.149        
     79000  -868.59747      990.70075      122.10327      1464.3211      142.50089      177.34391      31452.562      1.149        
     79500  -868.57867      990.70577      122.1271       1462.6443      142.50161      177.34322      31452.318      1.149        
     80000  -868.63396      990.78492      122.15096      1464.3264      142.51299      177.34278      31452.161      1.149        
     80500  -868.76335      990.93818      122.17483      1462.8445      142.53504      177.34259      31452.092      1.149        
     81000  -868.96625      991.16551      122.19925      1463.0131      142.56774      177.34264      31452.111      1.149        
     81500  -869.24334      991.46683      122.22349      1461.9429      142.61108      177.34294      31452.217      1.149        
     82000  -869.59388      991.84205      122.24817      1460.4048      142.66505      177.34348      31452.409      1.149        
     82500  -870.01785      992.29103      122.27318      1460.616       142.72963      177.34427      31452.689      1.149        
     83000  -870.51528      992.81362      122.29834      1460.6238      142.8048       177.34531      31453.055      1.149        
     83500  -871.08573      993.40962      122.32389      1460.0856      142.89053      177.34659      31453.507      1.149        
     84000  -871.72937      994.07883      122.34946      1458.7924      142.98679      177.34812      31454.046      1.149        
     84500  -872.44542      994.82099      122.37557      1457.4733      143.09354      177.34989      31454.672      1.149        
     85000  -873.23422      995.63583      122.40161      1454.2908      143.21074      177.3519       31455.384      1.149        
     85500  -874.09467      996.52304      122.42837      1453.3245      143.33836      177.35416      31456.183      1.149        
     86000  -875.02738      997.48231      122.45493      1451.4109      143.47634      177.35667      31457.068      1.149        
     86500  -876.03142      998.51327      122.48184      1451.7161      143.62463      177.35942      31458.04       1.149        
     87000  -877.10669      999.61553      122.50884      1450.0453      143.78318      177.36241      31459.097      1.149        
     87500  -878.25256      1000.7887      122.53613      1447.5983      143.95192      177.36565      31460.241      1.149        
     88000  -879.46903      1002.0323      122.56328      1443.4717      144.1308       177.36912      31461.47       1.149        
     88500  -880.7549       1003.3459      122.59102      1442.5797      144.31975      177.37284      31462.785      1.149        
     89000  -882.1099       1004.729       122.61912      1440.932       144.51869      177.37681      31464.186      1.149        
     89500  -883.53386      1006.1811      122.64724      1438.716       144.72756      177.38101      31465.671      1.149        
     90000  -885.02603      1007.7016      122.67556      1436.3539      144.94626      177.38545      31467.242      1.149        
     90500  -886.58536      1009.2899      122.70459      1432.8758      145.17473      177.39013      31468.897      1.149        
     91000  -888.21172      1010.9455      122.73382      1429.3963      145.41287      177.39506      31470.637      1.149        
     91500  -889.90465      1012.6678      122.7631       1426.946       145.66059      177.40022      31472.461      1.149        
     92000  -891.66331      1014.4559      122.79263      1424.6892      145.9178       177.40562      31474.37       1.149        
     92500  -893.48721      1016.3094      122.82219      1421.5694      146.1844       177.41125      31476.362      1.149        
     93000  -895.37545      1018.2275      122.852        1417.9522      146.46029      177.41712      31478.438      1.149        
     93500  -897.3268       1020.2094      122.88256      1414.9773      146.74536      177.42323      31480.598      1.149        
     94000  -899.34095      1022.2544      122.91341      1410.9155      147.03951      177.42957      31482.84       1.149        
     94500  -901.41721      1024.3617      122.94448      1407.9982      147.34263      177.43615      31485.166      1.149        
     95000  -903.55505      1026.5305      122.97549      1405.6409      147.65459      177.44296      31487.573      1.149        
     95500  -905.75303      1028.7601      123.00706      1402.0253      147.97529      177.45         31490.063      1.149        
     96000  -908.01051      1031.0495      123.03897      1398.2307      148.30459      177.45727      31492.635      1.149        
     96500  -910.32696      1033.3978      123.07088      1392.2398      148.64237      177.46477      31495.288      1.149        
     97000  -912.70091      1035.8043      123.10337      1388.0418      148.98851      177.4725       31498.023      1.149        
     97500  -915.13205      1038.2679      123.13581      1384.6748      149.34287      177.48046      31500.838      1.149        
     98000  -917.61928      1040.7877      123.16838      1381.5736      149.70531      177.48864      31503.733      1.149        
     98500  -920.16101      1043.3627      123.20171      1376.7712      150.07571      177.49705      31506.708      1.149        
     99000  -922.75667      1045.992       123.23538      1373.3921      150.4539       177.50569      31509.763      1.149        
     99500  -925.40567      1048.6746      123.26897      1367.885       150.83976      177.51454      31512.897      1.149        
    100000  -928.10665      1051.4095      123.30281      1363.1942      151.23314      177.52362      31516.109      1.149        
Loop time of 621.086 on 12 procs for 100000 steps with 3000 atoms

Performance: 0.001 ns/day, 17252.397 hours/ns, 161.008 timesteps/s, 483.025 katom-step/s
94.0% CPU use with 12 MPI tasks x no OpenMP threads

MPI task timing breakdown:
Section |  min time  |  avg time  |  max time  |%varavg| %total
---------------------------------------------------------------
Pair    | 126.41     | 238.01     | 283.08     | 263.4 | 38.32
Bond    | 1.264      | 1.6493     | 1.8542     |  12.2 |  0.27
Kspace  | 182.36     | 227.46     | 339.41     | 270.1 | 36.62
Neigh   | 0          | 0          | 0          |   0.0 |  0.00
Comm    | 15.518     | 15.919     | 16.298     |   5.3 |  2.56
Output  | 0.033458   | 0.036807   | 0.070895   |   5.4 |  0.01
Modify  | 123.98     | 131.16     | 136.21     |  23.3 | 21.12
Other   |            | 6.845      |            |       |  1.10

Nlocal:            250 ave         277 max         159 min
Histogram: 1 0 0 0 0 0 2 2 3 4
Nghost:        5300.42 ave        5574 max        4958 min
Histogram: 2 0 1 1 0 2 2 1 2 1
Neighs:        94721.6 ave      113671 max       50398 min
Histogram: 1 0 0 0 0 2 2 1 4 2

Total # of neighbors = 1136659
Ave neighs/atom = 378.88633
Ave special neighs/atom = 2
Neighbor list builds = 0
Dangerous builds = 0

timestep    0.001
run         ${Ninpt}
run         100000
PPPM initialization ...
  using 12-bit tables for long-range coulomb (../kspace.cpp:342)
  G vector (1/distance) = 0.23220806
  grid = 36 36 36
  stencil order = 5
  estimated absolute RMS force accuracy = 0.00025942537
  estimated relative force accuracy = 7.812518e-07
  using double precision KISS FFT
  3d grid and FFT values/proc = 11875 3888
Generated 1 of 1 mixed pair_coeff terms from geometric mixing rule
Per MPI rank memory allocation (min/avg/max) = 9.055 | 9.254 | 9.453 Mbytes
   Step         PotEng         KinEng         TotEng         Press           Temp           c_2            c_3            c_5      
    100000  -928.10665      1051.4095      123.30281      431679.67      151.23314      177.52362      31516.109      1.149        
    100500  -957.73128      1081.391       123.65976      1314.9364      155.54564      177.62629      31552.449      1.149        
    101000  -991.28077      1115.3304      124.04965      1259.8687      160.42743      177.74946      31596.087      1.149        
    101500  -1027.4584      1151.9292      124.47081      1200.6224      165.69175      177.89139      31646.412      1.149        
    102000  -1064.8572      1189.786       124.92879      1139.5697      171.137        178.04981      31702.649      1.149        
    102500  -1102.0298      1227.4502      125.42037      1079.0816      176.55457      178.22187      31763.797      1.149        
    103000  -1137.5326      1263.479       125.94638      1021.5279      181.73689      178.40405      31828.622      1.149        
    103500  -1169.9869      1296.4932      126.50632      969.21294      186.48561      178.59185      31895.533      1.149        
    104000  -1198.1352      1325.2314      127.09619      924.22944      190.61926      178.77981      31962.597      1.149        
    104500  -1220.886       1348.5991      127.71315      888.39384      193.98044      178.95889      32026.578      1.149        
    105000  -1237.359       1365.7124      128.35341      863.16658      196.44199      179.11353      32081.897      1.149        
    105500  -1246.9174      1375.9316      129.01415      849.63315      197.9119       179.22066      32120.261      1.149        
    106000  -1249.1994      1378.8879      129.68848      848.37053      198.33713      179.24895      32130.402      1.149        
    106500  -1244.122       1374.4969      130.37484      859.51844      197.70554      179.18998      32109.287      1.149        
    107000  -1231.8958      1362.9627      131.06682      882.73968      196.04647      179.06393      32064.18       1.149        
    107500  -1213.0074      1344.7695      131.7621       917.22275      193.4296       178.89636      32004.267      1.149        
    108000  -1188.2075      1320.6631      132.45559      961.66943      189.96217      178.71103      31938.091      1.149        
    108500  -1158.4772      1291.6213      133.14411      1014.5027      185.78484      178.52198      31870.68       1.149        
    109000  -1124.9901      1258.8157      133.82561      1073.7217      181.06614      178.33586      31804.408      1.149        
    109500  -1089.0695      1223.5659      134.49645      1137.1329      175.99586      178.15762      31741.023      1.149        
    110000  -1052.1299      1187.2878      135.15792      1202.4176      170.77767      177.99102      31681.848      1.149        
    110500  -1015.6296      1151.4382      135.80859      1267.1383      165.62112      177.83897      31627.898      1.149        
    111000  -981.00982      1117.4584      136.44858      1328.9286      160.73352      177.70413      31580.102      1.149        
    111500  -949.63994      1086.7177      137.07775      1385.5128      156.31182      177.58872      31539.225      1.149        
    112000  -922.75944      1060.4604      137.70099      1434.8968      152.53501      177.49446      31505.864      1.149        
    112500  -901.43773      1039.7578      138.32009      1475.2656      149.55718      177.42271      31480.484      1.149        
    113000  -886.52819      1025.4661      138.93796      1505.2629      147.50149      177.37459      31463.466      1.149        
    113500  -878.63367      1018.1938      139.56012      1523.8573      146.45544      177.35081      31455.056      1.149        
    114000  -878.08714      1018.2775      140.19034      1530.5036      146.46748      177.35179      31455.401      1.149        
    114500  -884.93779      1025.7692      140.83138      1525.0773      147.54508      177.37768      31464.547      1.149        
    115000  -898.94249      1040.4338      141.49129      1507.9552      149.65441      177.42832      31482.448      1.149        
    115500  -919.5864       1061.758       142.1716       1479.9614      152.72165      177.50331      31508.965      1.149        
    116000  -946.09233      1088.9699      142.87756      1442.3178      156.63577      177.60198      31543.881      1.149        
    116500  -977.45384      1121.0684      143.61459      1396.6086      161.25278      177.72343      31586.893      1.149        
    117000  -1012.4805      1156.8621      144.38153      1344.8013      166.40128      177.86653      31637.621      1.149        
    117500  -1049.8333      1195.0146      145.18126      1289.0166      171.88908      178.02996      31695.621      1.149        
    118000  -1088.0852      1234.0971      146.01191      1231.5845      177.51065      178.21218      31760.366      1.149        
    118500  -1125.7698      1272.6432      146.87334      1174.9114      183.05506      178.41145      31831.261      1.149        
    119000  -1161.4471      1309.2063      147.75921      1121.3189      188.31425      178.62573      31907.614      1.149        
    119500  -1193.7483      1342.4165      148.66821      1073.0755      193.09115      178.85278      31988.64       1.149        
    120000  -1221.4384      1371.0339      149.59546      1032.2386      197.20743      179.08998      32073.426      1.149        
    120500  -1243.4638      1393.9973      150.53352      1000.5152      200.51045      179.33382      32160.729      1.149        
    121000  -1258.9912      1410.4667      151.47558      979.299        202.87939      179.57674      32247.849      1.149        
    121500  -1267.441       1419.8556      152.41451      969.5714       204.22986      179.7948       32326.183      1.149        
    122000  -1268.5107      1421.8559      153.34521      971.81594      204.51759      179.80962      32331.517      1.149        
    122500  -1262.1867      1416.4493      154.26258      986.04877      203.73991      179.58557      32251.025      1.149        
    123000  -1248.747       1403.9056      155.15859      1011.8291      201.93565      179.33945      32162.751      1.149        
    123500  -1228.7474      1384.7765      156.02908      1048.2383      199.18415      179.09431      32074.975      1.149        
    124000  -1203.0015      1359.872       156.87048      1093.9029      195.60192      178.85578      31989.712      1.149        
    124500  -1172.5461      1330.2282      157.68206      1147.1487      191.338        178.62712      31908.108      1.149        
    125000  -1138.6088      1297.067       158.45816      1205.9199      186.56814      178.41094      31831.079      1.149        
    125500  -1102.5476      1261.7481      159.2005       1268.0122      181.48793      178.20949      31759.405      1.149        
    126000  -1065.8064      1225.716       159.90961      1331.0916      176.30512      178.02483      31693.79       1.149        
    126500  -1029.856       1190.4428      160.58681      1392.6995      171.23148      177.85882      31634.875      1.149        
    127000  -996.13845      1157.3716      161.23317      1450.5373      166.47457      177.71307      31583.206      1.149        
    127500  -966.00687      1127.8599      161.85302      1502.4096      162.22965      177.58892      31539.237      1.149        
    128000  -940.67702      1103.1267      162.44969      1546.3648      158.67207      177.48751      31503.345      1.149        
    128500  -921.17694      1084.2056      163.02868      1580.7279      155.95049      177.40984      31475.876      1.149        
    129000  -908.31143      1071.9046      163.59313      1604.2706      154.18112      177.35663      31457.066      1.149        
    129500  -902.6256       1066.7745      164.14894      1616.0879      153.44323      177.32833      31447.062      1.149        
    130000  -904.38637      1069.0883      164.70191      1615.8055      153.77603      177.3251       31445.921      1.149        
    130500  -913.57142      1078.8297      165.2583       1603.4415      155.17723      177.34681      31453.596      1.149        
    131000  -929.87201      1095.6944      165.82244      1579.5258      157.60302      177.39296      31469.906      1.149        
    131500  -952.70224      1119.1012      166.39897      1545.0265      160.96981      177.46297      31494.663      1.149        
    132000  -981.22265      1148.2145      166.99182      1501.3098      165.15742      177.55592      31527.551      1.149        
    132500  -1014.3733      1181.9765      167.60313      1450.1226      170.01369      177.67049      31568.117      1.149        
    133000  -1050.9118      1219.148       168.23626      1393.4409      175.36039      177.80517      31615.846      1.149        
    133500  -1089.4643      1258.3566      168.89231      1333.5529      181.00009      177.95802      31670.068      1.149        
    134000  -1128.5807      1298.1494      169.56869      1272.8432      186.72383      178.12652      31729.909      1.149        
    134500  -1166.7843      1337.0502      170.26586      1213.6934      192.31926      178.30736      31794.212      1.149        
    135000  -1202.6354      1373.6166      170.98121      1158.4938      197.57892      178.49646      31861.538      1.149        
    135500  -1234.7853      1406.4968      171.71149      1109.4856      202.30836      178.68864      31930.053      1.149        
    136000  -1262.0307      1434.4823      172.45153      1068.6362      206.33375      178.87789      31997.617      1.149        
    136500  -1283.3585      1456.5557      173.19718      1037.594       209.50875      179.05293      32060.195      1.1490001    
    137000  -1297.9868      1471.9306      173.94379      1017.7079      211.72026      179.19415      32110.741      1.1490001    
    137500  -1305.3965      1480.0833      174.68685      1009.8116      212.89294      179.27259      32138.845      1.1490001    
    138000  -1305.3515      1480.7723      175.42082      1014.2825      212.99204      179.26341      32135.567      1.1490001    
    138500  -1297.9083      1474.0492      176.1409       1031.0002      212.025        179.17034      32102.253      1.1490001    
    139000  -1283.412       1460.2561      176.84409      1059.4264      210.04101      179.01476      32046.586      1.1490001    
    139500  -1262.4871      1440.0121      177.52502      1098.4929      207.12915      178.82988      31980.512      1.1490001    
    140000  -1236.0055      1414.1894      178.18386      1146.7326      203.41485      178.63589      31911.277      1.1490001    
    140500  -1205.063       1383.8787      178.81576      1202.3187      199.05501      178.442        31842.177      1.1490001    
    141000  -1170.9233      1350.3467      179.4234       1263.1822      194.23182      178.25441      31775.416      1.1490001    
    141500  -1134.9806      1314.986       180.00536      1326.9785      189.14558      178.07721      31712.43       1.1490001    
    142000  -1098.6992      1279.2607      180.5615       1391.3052      184.00691      177.91388      31654.448      1.1490001    
    142500  -1063.5557      1244.6497      181.09403      1453.7526      179.02852      177.76712      31602.402      1.1490001    
    143000  -1030.9833      1212.5887      181.60548      1511.9717      174.41692      177.63877      31556.929      1.1490001    
    143500  -1002.3161      1184.4143      182.0982       1563.7362      170.36435      177.53103      31518.786      1.1490001    
    144000  -978.73418      1161.3122      182.57802      1607.1913      167.04138      177.44554      31488.542      1.1490001    
    144500  -961.22457      1144.2716      183.04704      1640.6849      164.59029      177.38341      31466.572      1.1490001    
    145000  -950.53489      1134.0465      183.51166      1663.0037      163.11953      177.34545      31453.154      1.1490001    
    145500  -947.15037      1131.1269      183.97654      1673.347       162.69957      177.33221      31448.473      1.1490001    
    146000  -951.27273      1135.7194      184.4467       1671.395       163.36015      177.34394      31452.613      1.1490001    
    146500  -962.81104      1147.7397      184.92865      1657.2754      165.08913      177.38061      31465.571      1.1490001    
    147000  -981.38946      1166.8153      185.42585      1631.5605      167.83294      177.44187      31487.23       1.1490001    
    147500  -1006.3567      1192.3         185.94333      1595.345       171.49862      177.52728      31517.44       1.1490001    
    148000  -1036.8133      1223.2987      186.48539      1550.0151      175.95743      177.6361       31555.959      1.1490001    
    148500  -1071.6459      1258.7019      187.05602      1497.3814      181.04977      177.7673       31602.438      1.1490001    
    149000  -1109.5711      1297.2284      187.65725      1439.5132      186.59135      177.91958      31656.441      1.1490001    
    149500  -1149.1867      1337.475       188.28825      1378.6779      192.38036      178.09142      31717.45       1.1490001    
    150000  -1189.0208      1377.9711      188.95023      1317.2904      198.20526      178.28101      31784.85       1.1490001    
    150500  -1227.5941      1417.2356      189.64151      1257.7462      203.85302      178.48624      31857.907      1.1490001    
    151000  -1263.4756      1453.8353      190.35964      1202.3738      209.11745      178.70455      31935.736      1.1490001    
    151500  -1295.3396      1486.44        191.10046      1153.3853      213.80727      178.93265      32017.182      1.1490001    
    152000  -1322.0174      1513.8759      191.85853      1112.6627      217.75361      179.16514      32100.326      1.1490001    
    152500  -1342.5404      1535.1708      192.6304       1081.8303      220.81663      179.39278      32181.863      1.1490001    
    153000  -1356.1832      1549.5931      193.40985      1062.0841      222.89111      179.5989       32255.811      1.1490001    
    153500  -1362.4884      1556.6793      194.19092      1054.188       223.91039      179.72443      32300.91       1.1490001    
    154000  -1361.2881      1556.2561      194.96797      1058.3974      223.84951      179.63454      32268.628      1.1490001    
    154500  -1352.7051      1548.4416      195.73645      1074.5228      222.72548      179.42197      32192.343      1.1490001    
    155000  -1337.1553      1533.6451      196.48976      1101.8928      220.59718      179.18732      32108.271      1.1490001    
    155500  -1315.3247      1512.5497      197.22502      1139.3403      217.56285      178.95089      32023.701      1.1490001    
    156000  -1288.1468      1486.0853      197.93849      1185.3556      213.75625      178.7202       31941.316      1.1490001    
    156500  -1256.7633      1455.392       198.62867      1238.0596      209.34137      178.49948      31862.618      1.1490001    
    157000  -1222.4823      1421.7755      199.29315      1295.2994      204.50602      178.29164      31788.624      1.1490001    
    157500  -1186.7251      1386.6559      199.93072      1354.7579      199.45447      178.09908      31720.163      1.1490001    
    158000  -1150.9665      1351.512       200.54545      1414.0395      194.39942      177.9239       31657.965      1.1490001    
    158500  -1116.6862      1317.8236      201.13748      1470.736       189.55375      177.76799      31602.669      1.1490001    
    159000  -1085.306       1287.0142      201.70814      1522.5747      185.12216      177.63293      31554.817      1.1490001    
    159500  -1058.1328      1260.395       202.2622       1567.4462      181.2933       177.52003      31514.853      1.1490001    
    160000  -1036.3124      1239.1148      202.80245      1603.5108      178.23239      177.43039      31483.144      1.1490001    
    160500  -1020.7792      1224.115       203.33573      1629.2828      176.07483      177.36487      31459.977      1.1490001    
    161000  -1012.2267      1216.0932      203.86647      1643.6944      174.92099      177.32409      31445.567      1.1490001    
    161500  -1011.0761      1215.4766      204.40047      1646.055       174.8323       177.30842      31440.03       1.1490001    
    162000  -1017.462       1222.4051      204.94312      1636.1534      175.82889      177.31776      31443.327      1.1490001    
    162500  -1031.2239      1236.7258      205.50193      1614.2917      177.88876      177.35207      31455.45       1.1490001    
    163000  -1051.9181      1257.9991      206.08099      1581.1934      180.94868      177.41087      31476.237      1.1490001    
    163500  -1078.8295      1285.5152      206.68569      1537.9958      184.90655      177.49328      31505.385      1.1490001    
    164000  -1110.9994      1318.3214      207.32204      1486.2644      189.62535      177.59824      31542.532      1.1490001    
    164500  -1147.2682      1355.259       207.99078      1427.9168      194.93839      177.72447      31587.245      1.1490001    
    165000  -1186.3128      1395.0076      208.69482      1365.0339      200.65577      177.87015      31638.893      1.1490001    
    165500  -1226.702       1436.1369      209.43484      1299.9712      206.57174      178.03306      31696.716      1.1490001    
    166000  -1266.9506      1477.1613      210.21073      1235.1693      212.47264      178.21049      31759.763      1.1490001    
    166500  -1305.5805      1516.5987      211.0182       1173.0078      218.14525      178.39881      31826.766      1.1490001    
    167000  -1341.1725      1553.0275      211.85507      1115.8289      223.38512      178.5933       31896.054      1.1490001    
    167500  -1372.4271      1585.1429      212.71576      1065.7435      228.00454      178.78867      31965.754      1.1490001    
    168000  -1398.2122      1611.8075      213.59525      1024.6145      231.83993      178.97685      32032.983      1.1490001    
    168500  -1417.61        1632.0966      214.4866       993.9877       234.75828      179.14367      32092.664      1.1490001    
    169000  -1429.9507      1645.3344      215.38367      974.92644      236.6624       179.2616       32134.895      1.1490001    
    169500  -1434.8407      1651.1209      216.28018      968.07534      237.49471      179.3031       32149.774      1.1490001    
    170000  -1432.1798      1649.3473      217.16745      973.61798      237.23961      179.25209      32131.516      1.1490001    
    170500  -1422.1595      1640.201       218.0415       991.20078      235.92401      179.12253      32085.141      1.1490001    
    171000  -1405.26        1624.1577      218.89775      1020.059       233.61637      178.94454      32021.477      1.1490001    
    171500  -1382.2334      1601.9631      219.72973      1058.9104      230.42393      178.74966      31951.872      1.1490001    
    172000  -1354.0692      1574.6033      220.53417      1106.1496      226.48855      178.55069      31880.905      1.1490001    
    172500  -1321.957       1543.2664      221.30933      1159.7956      221.98108      178.3555       31811.384      1.1490001    
    173000  -1287.2397      1509.2951      222.05548      1217.6536      217.09472      178.16912      31745.09       1.1490001    
    173500  -1251.3656      1474.1352      222.76956      1277.3449      212.03736      177.99525      31683.327      1.1490001    
    174000  -1215.8245      1439.2778      223.45334      1336.4539      207.02353      177.83691      31627.142      1.1490001    
    174500  -1182.0907      1406.2021      224.11139      1392.5721      202.26597      177.69635      31577.32       1.1490001    
    175000  -1151.5729      1376.3172      224.7443       1443.4194      197.96737      177.57565      31534.575      1.1490001    
    175500  -1125.5505      1350.9076      225.35708      1486.9555      194.31249      177.47664      31499.541      1.1490001    
    176000  -1105.1302      1331.0832      225.95305      1521.3538      191.46099      177.40062      31472.657      1.1490001    
    176500  -1091.1967      1317.7367      226.53994      1545.2221      189.54124      177.34854      31454.248      1.1490001    
    177000  -1084.3855      1311.5084      227.12282      1557.5343      188.64537      177.32106      31444.534      1.1490001    
    177500  -1085.0519      1312.762       227.7101       1557.7466      188.82569      177.31848      31443.624      1.1490001    
    178000  -1093.2649      1321.5703      228.30535      1545.7007      190.09266      177.34087      31451.533      1.1490001    
    178500  -1108.7979      1337.7122      228.91432      1521.7774      192.41449      177.38819      31468.256      1.1490001    
    179000  -1131.135       1360.6813      229.54625      1486.802       195.71832      177.46007      31493.671      1.1490001    
    179500  -1159.5009      1389.7051      230.20417      1442.0115      199.89306      177.55585      31527.558      1.1490001    
    180000  -1192.8816      1423.7749      230.8933       1389.0278      204.79361      177.6746       31569.603      1.1490001    
    180500  -1230.0685      1461.6846      231.61619      1329.7953      210.2465       177.81508      31619.388      1.1490001    
    181000  -1269.7052      1502.0776      232.37239      1266.4622      216.05656      177.97571      31676.376      1.1490001    
    181500  -1310.3353      1543.4989      233.16352      1201.4247      222.01453      178.15474      31739.964      1.1490001    
    182000  -1350.4644      1584.4519      233.98752      1137.0782      227.90515      178.34974      31809.318      1.1490001    
    182500  -1388.6146      1623.4568      234.84228      1075.8119      233.51556      178.55845      31883.65       1.1490001    
    183000  -1423.3864      1659.1086      235.72214      1019.9192      238.64365      178.7773       31961.71       1.1490001    
    183500  -1453.5076      1690.1316      236.624        971.46734      243.10595      179.00077      32041.535      1.1490001    
    184000  -1477.8889      1715.4302      237.54129      932.24428      246.74487      179.22058      32120.173      1.1490001    
    184500  -1495.6654      1734.1315      238.46612      903.62293      249.43484      179.4243       32193.167      1.1490001    
    185000  -1506.2296      1745.62        239.3904       886.67759      251.08732      179.58042      32249.187      1.1490001    
    185500  -1509.2528      1749.5622      240.30941      881.86788      251.65436      179.6119       32260.507      1.1490001    
    186000  -1504.704       1745.9197      241.2158       889.28468      251.13044      179.4791       32212.855      1.1490001    
    186500  -1492.8469      1734.9503      242.1034       908.49033      249.55262      179.26849      32137.354      1.1490001    
    187000  -1474.2295      1717.1985      242.96893      938.54874      246.99921      179.03961      32055.428      1.1490001    
    187500  -1449.6684      1693.4732      243.80482      978.14653      243.58661      178.81024      31973.459      1.1490001    
    188000  -1420.2074      1664.8177      244.61028      1025.5556      239.46484      178.5871       31893.843      1.1490001    
    188500  -1387.085       1632.4665      245.38152      1078.7769      234.8115       178.37446      31818.091      1.1490001    
    189000  -1351.679       1597.7983      246.11928      1135.526       229.82487      178.17531      31747.246      1.1490001    
    189500  -1315.4558      1562.2812      246.8254       1193.4817      224.71615      177.99208      31682.155      1.1490001    
    190000  -1279.9157      1527.4158      247.50016      1250.1866      219.70117      177.82688      31623.536      1.1490001    
    190500  -1246.5315      1494.6765      248.14503      1303.278       214.992        177.6815       31572.009      1.1490001    
    191000  -1216.6898      1465.4539      248.76407      1350.537       210.78865      177.55755      31528.117      1.1490001    
    191500  -1191.6374      1441.0008      249.36345      1389.9816      207.27136      177.45633      31492.303      1.1490001    
    192000  -1172.436       1422.3842      249.94822      1419.9066      204.59359      177.37884      31464.904      1.1490001    
    192500  -1159.9196      1410.4435      250.5239       1439.0084      202.87604      177.32583      31446.169      1.1490001    
    193000  -1154.6609      1405.758       251.09709      1446.3766      202.20209      177.2978       31436.265      1.1490001    
    193500  -1156.9522      1408.6248      251.67262      1441.5889      202.61444      177.29498      31435.269      1.1490001    
    194000  -1166.7883      1419.0473      252.25896      1424.6312      204.1136       177.31731      31443.164      1.1490001    
    194500  -1183.8731      1436.7347      252.86168      1395.9913      206.65774      177.36448      31459.834      1.1490001    
    195000  -1207.6284      1461.1137      253.48526      1356.6059      210.16437      177.43586      31485.072      1.1490001    
    195500  -1237.2131      1491.3497      254.13663      1307.8288      214.51348      177.53055      31518.573      1.1490001    
    196000  -1271.5635      1526.38        254.81644      1251.3432      219.55217      177.6474       31559.943      1.1490001    
    196500  -1309.425       1564.9538      255.52884      1189.1936      225.10058      177.78491      31608.673      1.1490001    
    197000  -1349.4075      1605.6815      256.27397      1123.6137      230.95878      177.94116      31664.101      1.1490001    
    197500  -1390.0363      1647.0879      257.05167      1056.9565      236.91462      178.11335      31725.248      1.1490001    
    198000  -1429.8093      1687.6703      257.86107      991.66477      242.75193      178.29838      31791.037      1.1490001    
    198500  -1467.2579      1725.9565      258.69857      930.10627      248.25895      178.4925       31860.147      1.1490001    
    199000  -1501.0048      1760.5625      259.55764      874.53525      253.23663      178.69045      31930.716      1.1490001    
    199500  -1529.813       1790.2472      260.43416      826.94353      257.50643      178.88572      32000.428      1.1490001    
    200000  -1552.6395      1813.9607      261.32119      789.03362      260.91735      179.06707      32065.255      1.1490001    
Loop time of 619.801 on 12 procs for 100000 steps with 3000 atoms

Performance: 0.014 ns/day, 1721.668 hours/ns, 161.342 timesteps/s, 484.027 katom-step/s
94.0% CPU use with 12 MPI tasks x no OpenMP threads

MPI task timing breakdown:
Section |  min time  |  avg time  |  max time  |%varavg| %total
---------------------------------------------------------------
Pair    | 126.26     | 236.77     | 280.53     | 261.8 | 38.20
Bond    | 1.2852     | 1.6513     | 1.8641     |  11.9 |  0.27
Kspace  | 183.53     | 227.37     | 338.23     | 267.9 | 36.68
Neigh   | 0.003618   | 0.0036233  | 0.0036348  |   0.0 |  0.00
Comm    | 15.734     | 16.012     | 16.43      |   4.8 |  2.58
Output  | 0.033374   | 0.036718   | 0.070955   |   5.4 |  0.01
Modify  | 123.83     | 131.13     | 136.06     |  23.4 | 21.16
Other   |            | 6.829      |            |       |  1.10

Nlocal:            250 ave         279 max         160 min
Histogram: 1 0 0 0 0 0 3 1 4 3
Nghost:         5230.5 ave        5504 max        4899 min
Histogram: 2 0 1 1 0 2 2 0 3 1
Neighs:        93209.3 ave      110495 max       50045 min
Histogram: 1 0 0 0 0 2 1 3 2 3

Total # of neighbors = 1118512
Ave neighs/atom = 372.83733
Ave special neighs/atom = 2
Neighbor list builds = 1
Dangerous builds = 0

timestep    0.01
run         ${Ninpt}
run         100000
PPPM initialization ...
  using 12-bit tables for long-range coulomb (../kspace.cpp:342)
  G vector (1/distance) = 0.23194148
  grid = 36 36 36
  stencil order = 5
  estimated absolute RMS force accuracy = 0.00026366497
  estimated relative force accuracy = 7.9401922e-07
  using double precision KISS FFT
  3d grid and FFT values/proc = 11875 3888
Generated 1 of 1 mixed pair_coeff terms from geometric mixing rule
Per MPI rank memory allocation (min/avg/max) = 9.055 | 9.254 | 9.453 Mbytes
   Step         PotEng         KinEng         TotEng         Press           Temp           c_2            c_3            c_5      
    200000  -1552.6396      1813.9607      261.32114      396965.89      260.91735      179.06707      32065.255      1.149        
    200500  -1411.4124      1680.8516      269.43923      1008.0987      241.77114      178.07601      31712.002      1.1490011    
    201000  -1236.5871      1511.6924      275.10526      1280.645       217.43953      177.34105      31451.596      1.1490012    
    201500  -1573.0999      1854.9956      281.89561      732.6555       266.81974      178.84344      31985.324      1.1490012    
    202000  -1534.8581      1824.3645      289.5064       783.63014      262.41381      178.46732      31851.168      1.1490012    
    202500  -1277.5423      1572.1815      294.63924      1178.5143      226.1402       177.28908      31433.197      1.1490012    
    203000  -1562.71        1862.8103      300.10028      706.40874      267.9438       178.39334      31824.849      1.1490012    
    203500  -1631.211       1937.9057      306.69467      585.60092      278.7454       178.75303      31953.073      1.1490012    
    204000  -1323.4838      1634.504       311.02022      1069.1992      235.10457      177.32316      31445.255      1.1490012    
    204500  -1525.2418      1840.1801      314.93824      744.4477       264.6887       178.0989       31720.137      1.1490012    
    205000  -1695.285       2015.3256      320.04063      467.29213      289.88137      179.19092      32109.602      1.1490012    
    205500  -1377.8115      1701.0766      323.26515      958.9373       244.68027      177.44895      31489.709      1.1490011    
    206000  -1473.9551      1799.5396      325.58457      793.71665      258.84304      177.77931      31606.715      1.1490011    
    206500  -1725.7931      2054.7444      328.95124      384.89241      295.5513       179.29477      32146.804      1.1490011    
    207000  -1440.116       1770.9995      330.8835       824.36878      254.73787      177.62073      31550.502      1.1490011    
    207500  -1424.1988      1755.826       331.62714      830.35759      252.55533      177.56215      31529.793      1.1490011    
    208000  -1730.714       2063.8661      333.15214      324.98584      296.86336      179.28913      32144.741      1.149001     
    208500  -1513.6451      1847.2552      333.61014      642.86683      265.70638      177.89546      31647.878      1.149001     
    209000  -1388.4442      1721.2299      332.78561      812.71874      247.57908      177.40348      31473.65       1.149001     
    209500  -1709.2878      2041.6868      332.39899      282.75421      293.67312      178.96491      32028.748      1.149001     
    210000  -1583.2995      1914.4466      331.14711      452.92251      275.37109      178.16863      31744.89       1.1490009    
    210500  -1362.8868      1691.5698      328.68295      772.10898      243.31282      177.30557      31439.025      1.1490009    
    211000  -1657.2205      1983.639       326.41851      296.97704      285.32362      178.63562      31911.189      1.1490009    
    211500  -1635.8608      1959.2726      323.41182      319.89785      281.81879      178.54748      31879.763      1.1490009    
    212000  -1349.3307      1668.6863      319.35561      751.41156      240.0213       177.32274      31445.11       1.1490008    
    212500  -1583.0086      1898.5225      315.51392      370.3836       273.08058      178.29567      31790.134      1.1490008    
    213000  -1668.7302      1979.8522      311.122        217.89903      284.77893      178.85312      31988.83       1.1490008    
    213500  -1354.6047      1660.4931      305.88848      685.08772      238.8428       177.37097      31462.108      1.1490008    
    214000  -1503.0187      1804.074       301.05528      437.47134      259.49525      177.97557      31676.343      1.1490008    
    214500  -1685.8962      1981.8279      295.93168      137.26584      285.06311      179.16924      32101.862      1.1490007    
    215000  -1386.2705      1676.3573      290.08678      577.71569      241.12469      177.54393      31523.33       1.1490007    
    215500  -1436.118       1720.9176      284.79958      471.53856      247.53416      177.73363      31590.56       1.1490007    
    216000  -1693.1353      1972.6535      279.51812      44.518274      283.74347      179.22992      32123.575      1.1490007    
    216500  -1444.3232      1717.8664      273.54324      395.93282      247.09529      177.73165      31589.762      1.1490007    
    217000  -1390.7387      1658.8808      268.14209      444.47642      238.61089      177.52514      31516.663      1.1490007    
    217500  -1686.2739      1949.272       262.99813     -38.758057      280.38032      179.09548      32075.443      1.1490006    
    218000  -1514.3815      1771.5378      257.15636      200.53428      254.8153       178.0249       31693.844      1.1490006    
    218500  -1363.4104      1615.1738      251.76335      406.15688      232.32414      177.4245       31481.102      1.1490006    
    219000  -1656.8556      1903.7166      246.86102     -65.9844        273.8277       178.81517      31975.282      1.1490006    
    219500  -1577.3043      1818.6457      241.34143      37.802287      261.59123      178.31011      31795.218      1.1490006    
    220000  -1347.846       1583.9415      236.09558      370.99327      227.83174      177.35928      31457.986      1.1490005    
    220500  -1603.5152      1835.0813      231.56608     -34.454056      263.9553       178.48804      31858.605      1.1490005    
    221000  -1624.9782      1851.5977      226.61956     -78.151104      266.331        178.65105      31916.709      1.1490005    
    221500  -1349.2351      1570.9832      221.7481       332.25363      225.96784      177.40298      31473.466      1.1490005    
    222000  -1539.6448      1757.3773      217.73249      31.895973      252.77848      178.18982      31752.497      1.1490005    
    222500  -1659.3521      1872.9403      213.5882      -160.05104      269.40089      178.9361       32018.49       1.1490005    
    223000  -1373.9858      1583.2885      209.30272      263.67373      227.7378       177.48716      31503.199      1.1490005    
    223500  -1478.2387      1684.1265      205.88775      92.960438      242.24219      177.90754      31652.218      1.1490004    
    224000  -1677.7796      1880.4311      202.65154     -218.71352      270.47835      179.12853      32087.286      1.1490004    
    224500  -1414.7716      1613.8954      199.12376      179.15959      232.14026      177.66277      31565.38       1.1490004    
    225000  -1418.8876      1615.2301      196.34249      174.11166      232.33224      177.69816      31577.987      1.1490004    
    225500  -1669.3244      1863.3775      194.05313     -201.47138      268.02539      179.115        32082.43       1.1490004    
    226000  -1458.8394      1650.3131      191.47372      124.365        237.37852      177.87367      31640.138      1.1490004    
    226500  -1364.6773      1554.1171      189.43974      271.71765      223.54183      177.52667      31517.231      1.1490004    
    227000  -1635.4087      1823.597       188.18825     -131.41491      262.30341      178.93035      32016.427      1.1490004    
    227500  -1503.7792      1690.6137      186.83446      78.921989      243.1753       178.14992      31738.251      1.1490003    
    228000  -1327.3738      1513.1324      185.75857      354.31802      217.64666      177.44788      31489.355      1.1490003    
    228500  -1587.4848      1773.138       185.65312     -34.286637      255.04547      178.66221      31920.705      1.1490003    
    229000  -1551.1286      1736.8947      185.76611      23.09998       249.83229      178.43557      31839.896      1.1490003    
    229500  -1316.8448      1502.7239      185.87908      376.35697      216.14952      177.41556      31477.902      1.1490003    
    230000  -1535.1713      1722.1209      186.94956      44.789117      247.70724      178.35483      31811.202      1.1490003    
    230500  -1596.1254      1784.7499      188.62451     -47.552125      256.71571      178.72903      31944.535      1.1490003    
    231000  -1332.7778      1522.8454      190.06764      349.40425      219.04377      177.47097      31497.482      1.1490003    
    231500  -1482.8015      1675.0444      192.24295      119.15901      240.93584      178.08675      31715.889      1.1490003    
    232000  -1630.9316      1826.2959      195.36425     -109.78961      262.69162      178.96342      32028.251      1.1490003    
    232500  -1369.3312      1567.472       198.14088      280.47226      225.46279      177.57752      31535.187      1.1490003    
    233000  -1431.4337      1632.6857      201.25202      183.30788      234.84303      177.82582      31623.244      1.1490003    
    233500  -1644.6308      1850.1345      205.50378     -138.24219      266.12054      179.04708      32058.14       1.1490003    
    234000  -1414.4588      1623.9141      209.4553       212.80518      233.58133      177.75331      31597.438      1.1490003    
    234500  -1381.7283      1595.0107      213.28236      265.15998      229.42391      177.64383      31558.74       1.1490003    
    235000  -1634.5609      1852.8341      218.27319     -114.96468      266.50884      178.98095      32034.494      1.1490003    
    235500  -1466.1984      1689.3647      223.16627      137.93725      242.99564      177.97846      31677.351      1.1490003    
    236000  -1346.4649      1573.9878      227.52295      314.03078      226.40001      177.50101      31508.17       1.1490003    
    236500  -1609.0518      1841.9302      232.87848     -86.637928      264.94044      178.76227      31956.411      1.1490003    
    237000  -1522.3929      1760.776       238.3831       38.984829      253.26735      178.2362       31768.922      1.1490003    
    237500  -1330.0455      1573.086       243.04052      323.81237      226.2703       177.43591      31485.093      1.1490003    
    238000  -1568.5943      1816.9828      248.38857     -36.719639      261.35205      178.50393      31864.299      1.1490003    
    238500  -1572.4594      1826.5848      254.1254      -42.364623      262.73318      178.51713      31868.961      1.1490002    
    239000  -1331.44        1590.2987      258.85878      317.64342      228.74615      177.44065      31486.8        1.1490002    
    239500  -1516.4119      1780.3306      263.91865      34.083433      256.08004      178.21294      31760.74       1.1490002    
    240000  -1608.4526      1878.0045      269.55191     -109.98338      270.12931      178.76125      31956.042      1.1490002    
    240500  -1347.6114      1621.806       274.19464      280.13086      233.27811      177.49927      31507.453      1.1490002    
    241000  -1455.2396      1734.0575      278.81789      122.55644      249.42419      177.96162      31671.448      1.1490002    
    241500  -1621.5224      1905.6578      284.1354      -118.57318      274.10692      178.93668      32018.685      1.1490002    
    242000  -1372.2397      1660.8482      288.60848      263.87449      238.89388      177.64073      31557.589      1.1490002    
    242500  -1389.9652      1682.7477      292.78248      240.64532      242.04386      177.73748      31591.96       1.1490002    
    243000  -1609.3605      1907.0838      297.72327     -86.60665       274.31203      178.94055      32020.07       1.1490002    
    243500  -1402.9946      1705.0773      302.08271      227.10536      245.25573      177.81912      31620.766      1.1490002    
    244000  -1331.3414      1637.2742      305.93286      339.61705      235.50303      177.57349      31533.804      1.1490002    
    244500  -1578.475       1889.0315      310.55653     -24.885461      271.71542      178.84073      31984.429      1.1490002    
    245000  -1442.7241      1757.6249      314.9008       181.55209      252.8141       178.05533      31704.643      1.1490002    
    245500  -1293.9971      1612.5604      318.56329      400.19604      231.94824      177.47243      31498.1        1.1490002    
    246000  -1538.5549      1861.4564      322.90152      27.702022      267.74905      178.59646      31897.288      1.1490002    
    246500  -1487.4294      1814.6777      327.2483       99.2419        261.02048      178.30928      31794.94       1.1490002    
    247000  -1278.008       1608.7908      330.78283      408.39074      231.40602      177.42938      31482.75       1.1490002    
    247500  -1487.6051      1822.3883      334.78316      92.024181      262.12956      178.35466      31811.161      1.1490002    
    248000  -1525.425       1864.4623      339.03734      31.559411      268.18143      178.5673       31886.854      1.1490002    
    248500  -1282.4778      1624.9046      342.42682      386.64344      233.72381      177.46105      31494.022      1.1490002    
    249000  -1432.7748      1778.8156      346.04076      151.28325      255.86212      178.07962      31713.39       1.1490002    
    249500  -1553.98        1904.0759      350.09592     -39.05171       273.87938      178.77022      31959.262      1.1490002    
    250000  -1307.3246      1660.6418      353.31717      323.3011       238.86418      177.55166      31525.994      1.1490002    
    250500  -1379.1307      1735.6238      356.49302      211.16162      249.64948      177.86178      31636.026      1.1490002    
    251000  -1565.0371      1925.2331      360.19604     -69.672647      276.9226       178.87302      31995.932      1.1490002    
    251500  -1342.1877      1705.3515      363.16374      261.92559      245.29516      177.69809      31577.89       1.1490002    
    252000  -1325.3105      1691.165       365.85444      287.08957      243.2546       177.66111      31564.921      1.1490002    
    252500  -1550.6523      1919.7636      369.1113      -45.43087       276.13587      178.82681      31979.457      1.1490002    
    253000  -1378.7644      1750.5855      371.8211       218.57758      251.80155      177.90477      31651.181      1.1490002    
    253500  -1278.156       1652.2543      374.0983       376.01836      237.65775      177.53672      31520.811      1.1490002    
[...]
   4930000  -709.39572      1724.0739      1014.6782      79.287868      247.98816      177.44858      31489.59       1.1489988    
   4930500  -714.31649      1763.7559      1049.4394      114.06285      253.69597      177.49796      31507.317      1.1489975    
   4931000  -704.30409      1764.8026      1060.4985      148.05261      253.84651      177.46031      31493.83       1.1489933    
   4931500  -723.11623      1784.1941      1061.0779      111.04034      256.63577      177.47564      31499.414      1.148985     
   4932000  -789.14353      1786.3277      997.18416      137.61963      256.94266      177.48392      31502.222      1.1489888    
   4932500  -791.331        1779.3599      988.02894      97.907125      255.94042      177.53686      31521.151      1.1489941    
   4933000  -755.98378      1752.3004      996.31664      92.528196      252.04823      177.47664      31499.571      1.1489945    
   4933500  -780.9828       1806.5759      1025.5931      187.77085      259.85512      177.50285      31509.05       1.1489903    
   4934000  -773.68363      1784.7769      1011.0933      139.92861      256.71959      177.50728      31510.471      1.1489922    
   4934500  -796.05799      1769.438       973.37998      66.867763      254.51327      177.52084      31515.411      1.1489947    
   4935000  -871.21186      1765.4613      894.24947      107.0155       253.94127      177.51591      31513.522      1.1489961    
   4935500  -844.01337      1772.1961      928.18273      86.826679      254.90999      177.542        31522.85       1.1490086    
   4936000  -843.01945      1816.6333      973.61389      70.689834      261.30178      177.5097       31511.38       1.1490035    
   4936500  -794.16785      1734.3179      940.15009      133.63054      249.46165      177.52198      31515.724      1.149004     
   4937000  -792.86507      1716.7504      923.88529      38.552757      246.93476      177.50616      31510.024      1.1490095    
   4937500  -788.10015      1752.286       964.18583      62.034405      252.04615      177.4948       31506.131      1.149014     
   4938000  -740.21983      1776.7888      1036.5689      77.191479      255.57059      177.47983      31500.745      1.1490135    
   4938500  -778.49738      1801.0649      1022.5675      109.88867      259.06243      177.47414      31498.836      1.1490129    
   4939000  -760.1325       1781.8685      1021.736       142.51883      256.30125      177.50082      31508.175      1.1490153    
   4939500  -723.52048      1738.0273      1014.5068      132.16937      249.9952       177.45227      31491.108      1.1490153    
   4940000  -723.20401      1740.3617      1017.1577      31.57032       250.33098      177.47802      31500.098      1.149006     
   4940500  -699.46453      1749.49        1050.0255      112.04362      251.64398      177.49448      31506.164      1.1490063    
   4941000  -694.65446      1765.2315      1070.577       94.554463      253.90821      177.47886      31500.499      1.1489984    
   4941500  -720.63582      1735.9647      1015.3289      82.823606      249.69852      177.50098      31508.482      1.148998     
   4942000  -735.4913       1709.0517      973.56044      40.974832      245.8274       177.50216      31508.72       1.1489936    
   4942500  -759.28718      1743.7368      984.44961      87.202298      250.81645      177.50423      31509.406      1.1489826    
   4943000  -753.14803      1738.8362      985.68815      117.54829      250.11155      177.46735      31496.374      1.1489846    
   4943500  -798.39485      1784.0804      985.68559      143.30122      256.61941      177.51541      31513.416      1.1489606    
   4944000  -817.00424      1745.673       928.66874      127.38644      251.09494      177.4921       31505.078      1.1489939    
   4944500  -822.60257      1741.0454      918.44283      133.31998      250.42932      177.55848      31528.735      1.1489914    
   4945000  -768.20297      1725.748       957.54503      97.889019      248.22897      177.51534      31513.49       1.1490039    
   4945500  -796.37126      1756.1434      959.77209      62.46698       252.60099      177.49432      31505.939      1.1490028    
   4946000  -795.8809       1752.5777      956.69678      76.524083      252.08811      177.53822      31521.562      1.1490073    
   4946500  -781.09054      1754.6582      973.56765      63.426788      252.38736      177.47496      31499.072      1.1490192    
   4947000  -759.36869      1783.1503      1023.7816      87.77637       256.48563      177.54346      31523.42       1.1490208    
   4947500  -708.76668      1722.2619      1013.4952      122.43764      247.72753      177.48726      31503.61       1.1490176    
   4948000  -666.58752      1703.584       1036.9964      72.161056      245.04092      177.53677      31521.03       1.149017     
   4948500  -636.93355      1708.6536      1071.7201      113.40995      245.77014      177.44557      31488.861      1.1489863    
   4949000  -706.30493      1786.1879      1079.8829      89.654693      256.92254      177.50728      31510.535      1.1489813    
   4949500  -704.39216      1784.2731      1079.881       76.025072      256.64713      177.4662       31496.146      1.1489907    
   4950000  -722.50072      1778.7175      1056.2168      78.120501      255.84802      177.46732      31496.372      1.148998     
   4950500  -716.37443      1760.5383      1044.1638      91.15811       253.23314      177.48945      31504.313      1.1490058    
   4951000  -722.31813      1748.0131      1025.695       96.612413      251.43155      177.46389      31495.224      1.1490071    
   4951500  -704.7588       1709.3309      1004.5721      80.633085      245.86755      177.52338      31516.266      1.1490205    
   4952000  -640.97648      1733.7515      1092.775       64.587367      249.38017      177.43839      31486.231      1.1490072    
   4952500  -685.15261      1759.5921      1074.4395      49.452604      253.09706      177.48182      31501.503      1.1489881    
   4953000  -714.1842       1780.0812      1065.897       100.69636      256.04417      177.44392      31488.119      1.1489864    
   4953500  -719.11868      1792.7194      1073.6007      113.51969      257.86203      177.49108      31504.825      1.1489939    
   4954000  -660.9316       1772.3181      1111.3865      137.00786      254.92754      177.4206       31479.883      1.1489945    
   4954500  -719.79999      1795.6033      1075.8033      78.731209      258.27684      177.49171      31504.975      1.1489971    
   4955000  -683.57339      1744.5997      1061.0263      80.271717      250.94057      177.45369      31491.697      1.1490042    
   4955500  -696.64938      1834.9105      1138.2611      163.77921      263.93074      177.4948       31506.137      1.1489992    
   4956000  -692.7435       1784.4858      1091.7423      81.681263      256.67772      177.43251      31484.213      1.1490075    
   4956500  -685.4911       1779.5948      1094.1037      82.516998      255.97421      177.48835      31503.764      1.1489956    
   4957000  -695.57554      1763.4433      1067.8678      147.21083      253.651        177.4723       31498.328      1.1490056    
   4957500  -697.54695      1777.5093      1079.9624      61.206898      255.67424      177.49023      31504.501      1.1490238    
   4958000  -633.36176      1798.0536      1164.6918      149.17252      258.62929      177.42399      31481.173      1.1490167    
   4958500  -624.38706      1759.7054      1135.3184      112.4487       253.11335      177.42685      31482.058      1.1490126    
   4959000  -634.07695      1774.2668      1140.1899      100.96858      255.20784      177.44892      31489.975      1.1489903    
   4959500  -653.26171      1795.7145      1142.4528      97.338127      258.29285      177.46963      31497.233      1.1490004    
   4960000  -638.82375      1796.0058      1157.1821      145.7351       258.33474      177.4144       31477.778      1.1489888    
   4960500  -649.68147      1799.4544      1149.773       82.246042      258.83079      177.45321      31491.465      1.1489893    
   4961000  -690.37385      1747.1878      1056.814       87.702338      251.31284      177.48266      31501.9        1.1489783    
   4961500  -694.75584      1741.8251      1047.0693      143.01275      250.54148      177.46327      31495.029      1.1489908    
   4962000  -693.50568      1745.1002      1051.5946      80.394603      251.01256      177.50242      31508.959      1.1489937    
   4962500  -731.0292       1697.0968      966.06757      91.880465      244.10782      177.52438      31516.606      1.1489853    
   4963000  -750.42563      1735.9034      985.4778       135.19862      249.68971      177.49214      31505.21       1.1489989    
   4963500  -776.67393      1783.5926      1006.9187      76.808927      256.54924      177.50789      31510.86       1.1490067    
   4964000  -788.8814       1703.9101      915.02866      151.44999      245.08783      177.51016      31511.567      1.1490064    
   4964500  -794.72847      1812.3241      1017.5957      72.910024      260.68194      177.53017      31518.767      1.1490161    
   4965000  -735.30863      1773.6499      1038.3413      142.43777      255.1191       177.46454      31495.437      1.1490156    
   4965500  -725.61132      1785.296       1059.6847      38.423562      256.79426      177.49437      31506.002      1.1490059    
   4966000  -680.05728      1792.5607      1112.5034      75.632314      257.8392       177.44462      31488.531      1.1489826    
   4966500  -743.7728       1779.4986      1035.7258      124.04736      255.96037      177.50995      31511.491      1.1489887    
   4967000  -734.48135      1766.7987      1032.3173      136.87656      254.13363      177.46459      31495.391      1.1489976    
   4967500  -711.4377       1763.3385      1051.9008      109.77878      253.63593      177.46295      31494.832      1.1490003    
   4968000  -729.38147      1753.8849      1024.5035      180.49254      252.27614      177.51214      31512.169      1.1489895    
   4968500  -728.48713      1797.7853      1069.2982      137.93941      258.5907       177.43445      31484.723      1.148992     
   4969000  -743.72329      1797.0097      1053.2864      103.6691       258.47915      177.47647      31499.525      1.1490114    
   4969500  -732.98975      1783.2847      1050.2949      85.072283      256.50496      177.47192      31498.018      1.149003     
   4970000  -756.74105      1768.6166      1011.8756      106.97843      254.39512      177.47851      31500.288      1.1489955    
   4970500  -735.2934       1753.4034      1018.11        96.702558      252.20688      177.45983      31493.69       1.1489928    
   4971000  -787.42976      1720.6733      933.2435       61.175363      247.49902      177.50202      31508.653      1.1489842    
   4971500  -823.70607      1768.6585      944.95244      151.27426      254.40115      177.52782      31517.755      1.1489949    
   4972000  -790.42895      1792.3528      1001.9238      105.47148      257.80929      177.45428      31491.684      1.1490148    
   4972500  -803.64413      1810.1905      1006.5463      48.620427      260.37504      177.52471      31516.618      1.1490089    
   4973000  -755.35565      1751.5756      996.21994      131.15509      251.94397      177.44866      31489.604      1.1490081    
   4973500  -720.47152      1780.2924      1059.8209      71.982237      256.07455      177.46614      31495.986      1.1490179    
   4974000  -688.88698      1747.0379      1058.1509      100.68588      251.29128      177.43648      31485.356      1.1490012    
   4974500  -671.87917      1790.2018      1118.3227      136.98047      257.49991      177.41853      31479.105      1.149002     
   4975000  -692.26249      1776.3676      1084.1051      96.089241      255.51001      177.4531       31491.265      1.1490007    
   4975500  -705.97332      1784.0939      1078.1205      76.32052       256.62134      177.46534      31495.796      1.1489922    
   4976000  -720.20261      1781.2535      1061.0509      107.12412      256.21279      177.45308      31491.293      1.1490055    
   4976500  -675.61862      1780.5708      1104.9522      164.78013      256.1146       177.45941      31493.62       1.1490089    
   4977000  -721.31892      1779.1443      1057.8253      141.62742      255.9094       177.45035      31490.345      1.1489948    
   4977500  -743.11877      1785.2895      1042.1707      43.06977       256.79332      177.4984       31507.415      1.1489995    
   4978000  -735.25008      1719.7381      984.48803      86.041911      247.36451      177.50091      31508.303      1.1489909    
   4978500  -765.39709      1758.9618      993.56474      84.973411      253.00639      177.5016       31508.699      1.1489959    
   4979000  -726.94328      1747.2557      1020.3125      130.37178      251.32261      177.4942       31505.932      1.1489976    
   4979500  -754.74475      1733.5286      978.78388      72.293313      249.34812      177.5494       31525.575      1.1489944    
   4980000  -756.44954      1744.2956      987.84608      85.26519       250.89683      177.46645      31496.183      1.1490078    
   4980500  -734.4138       1720.5159      986.10212      101.19682      247.47639      177.55055      31525.983      1.1490078    
   4981000  -744.28961      1706.8729      962.58326      99.553343      245.514        177.49024      31504.607      1.148999     
   4981500  -745.19564      1766.9824      1021.7867      50.799521      254.16005      177.51664      31514.003      1.1490019    
   4982000  -727.07624      1764.5691      1037.4929      142.30316      253.81294      177.46861      31496.938      1.1489977    
   4982500  -712.64979      1782.3301      1069.6803      115.31669      256.36765      177.5029       31509.172      1.1489957    
   4983000  -737.5282       1835.2664      1097.7382      125.95275      263.98192      177.48401      31502.43       1.148984     
   4983500  -746.10813      1777.9544      1031.8463      43.471479      255.73826      177.48024      31501.089      1.1489818    
   4984000  -808.01455      1772.1301      964.11557      69.088353      254.9005       177.52353      31516.347      1.1489792    
   4984500  -836.01501      1783.9068      947.89181      137.05864      256.59444      177.50649      31510.35       1.1489884    
   4985000  -847.421        1808.6275      961.20655      169.38779      260.15023      177.5511       31526.102      1.1490118    
   4985500  -834.13046      1765.5005      931.37006      152.24964      253.94691      177.48615      31503.107      1.149015     
   4986000  -847.62238      1761.4029      913.78049      117.4518       253.35751      177.55225      31526.527      1.1490265    
   4986500  -781.13746      1731.9214      950.78391      111.37352      249.11693      177.5094       31511.267      1.1490075    
   4987000  -800.36324      1751.6945      951.33126      91.730137      251.96107      177.5259       31517.226      1.1490042    
   4987500  -803.55619      1739.3279      935.77167      91.925848      250.18227      177.49115      31504.826      1.1490183    
   4988000  -747.76127      1741.9404      994.17917      82.622365      250.55806      177.50145      31508.424      1.1490072    
   4988500  -733.18731      1748.482       1015.2947      120.09459      251.49899      177.47072      31497.641      1.1490114    
   4989000  -736.80553      1766.4237      1029.6182      135.24646      254.0797       177.46268      31494.662      1.1489917    
   4989500  -732.02915      1742.3549      1010.3257      131.94238      250.61767      177.48629      31503.146      1.149003     
   4990000  -707.77794      1746.9259      1039.148       167.49776      251.27516      177.48787      31503.727      1.1489985    
   4990500  -723.37113      1722.5205      999.14937      94.794172      247.76473      177.47696      31499.755      1.1489858    
   4991000  -752.84574      1749.1039      996.25814      90.984795      251.58844      177.49287      31505.478      1.1489853    
   4991500  -738.72536      1728.9832      990.25788      101.12422      248.69432      177.46991      31497.183      1.1489902    
   4992000  -752.46527      1840.9151      1088.4498      108.29467      264.79442      177.45598      31492.362      1.148994     
   4992500  -763.29045      1785.0188      1021.7283      79.218133      256.75438      177.4784       31500.214      1.1489713    
   4993000  -803.73383      1753.5008      949.767        110.65337      252.22089      177.45775      31493.01       1.148992     
   4993500  -824.58995      1826.3364      1001.7465      27.17739       262.69745      177.516        31513.537      1.1489998    
   4994000  -793.1473       1782.3402      989.19294      120.20623      256.36911      177.48197      31501.533      1.1490064    
   4994500  -782.96897      1761.9736      979.00458      142.09166      253.43959      177.44122      31487.082      1.148997     
   4995000  -847.96442      1760.6305      912.66611      93.559174      253.24642      177.5619       31529.769      1.1489991    
   4995500  -826.72531      1691.7686      865.04327      98.546675      243.34142      177.5094       31511.259      1.1489931    
   4996000  -858.34248      1729.6256      871.28313      146.7523       248.78672      177.53879      31521.583      1.1489831    
   4996500  -820.5695       1741.7752      921.20566      112.90077      250.53429      177.51971      31514.908      1.1490059    
   4997000  -823.01951      1778.8618      955.8423       84.024436      255.86878      177.50239      31508.706      1.1489942    
   4997500  -798.73132      1754.5217      955.79043      157.4416       252.36774      177.51346      31512.705      1.1489922    
   4998000  -825.46975      1765.778       940.30821      39.393374      253.98682      177.47081      31497.499      1.149        
   4998500  -837.02407      1724.5473      887.52328      85.661305      248.05627      177.55706      31528.136      1.149        
   4999000  -817.16542      1742.9025      925.73713      86.819519      250.69645      177.51952      31514.851      1.1489946    
   4999500  -830.35084      1740.91        910.55914      17.084273      250.40984      177.53335      31519.788      1.1490002    
   5000000  -817.4486       1738.0556      920.60696      92.805371      249.99927      177.49082      31504.579      1.1489857    
Loop time of 40537.4 on 12 procs for 5000000 steps with 3000 atoms

Performance: 10.657 ns/day, 2.252 hours/ns, 123.343 timesteps/s, 370.029 katom-step/s
91.9% CPU use with 12 MPI tasks x no OpenMP threads

MPI task timing breakdown:
Section |  min time  |  avg time  |  max time  |%varavg| %total
---------------------------------------------------------------
Pair    | 5640.6     | 5759.4     | 5863.4     | 101.4 | 14.21
Bond    | 84.778     | 86.615     | 91.962     |  20.2 |  0.21
Kspace  | 20016      | 20121      | 20245      |  54.8 | 49.63
Neigh   | 143.79     | 143.83     | 143.86     |   0.2 |  0.35
Comm    | 593.13     | 599.23     | 604.96     |  16.3 |  1.48
Output  | 320.26     | 320.29     | 320.32     |   0.1 |  0.79
Modify  | 9380.3     | 12176      | 13420      |1243.3 | 30.04
Other   |            | 1331       |            |       |  3.28

Nlocal:            250 ave         347 max         190 min
Histogram: 2 1 0 4 3 1 0 0 0 1
Nghost:        3836.83 ave        4070 max        3594 min
Histogram: 1 2 0 0 5 1 0 0 1 2
Neighs:          58937 ave       93650 max       36543 min
Histogram: 2 0 2 2 4 0 1 0 0 1

Total # of neighbors = 707244
Ave neighs/atom = 235.748
Ave special neighs/atom = 2
Neighbor list builds = 59476
Dangerous builds = 0
Total wall time: 12:37:38
